6
Properties=species:S:1:pos:R:3:REF_forces:R:3:S0_forces:R:3:S1_forces:R:3:S2_forces:R:3:forces:R:3 state=0 data_path=dataset_x/meci/x_conic_grad_e_RIGHT-BASIS.json name=00867-closeToCI_S2S0-state1.dat REF_energy=-2573.921029371076 S0_energy=-2573.921029371076 S1_energy=-2573.9142356042203 S2_energy=-2568.3852016083565 energy=-2573.921029371076 pbc="F F F"
C       -0.28150120       0.01374056      -1.56151617       0.26674791       0.24737532       0.52571278       0.26674791       0.24737532       0.52571278       0.05648349       0.03089705       4.07104731       0.24329811       0.18311054       7.26031770       0.26674791       0.24737532       0.52571278
N       -0.29032753      -0.00425723      -0.14170380      -0.20508401      -0.17845622      -1.46082462      -0.20508401      -0.17845622      -1.46082462       0.33737139       0.32720309      -2.85002811      -0.47303957      -0.41639620      -5.73618923      -0.20508401      -0.17845622      -1.46082462
H       -0.95094160       0.57178910       0.38120277      -0.49158581       0.44243660       0.59712636      -0.49158581       0.44243660       0.59712636      -0.24728430       0.16085877       0.12776363      -0.52844185       0.81926676       0.98866370      -0.49158581       0.44243660       0.59712636
H        0.25701541      -0.69552441       0.37243281       0.57243703      -0.38247502       0.60361526       0.57243703      -0.38247502       0.60361526      -0.00362927      -0.38741756       0.11070559       0.79695164      -0.57332442       0.97876505       0.57243703      -0.38247502       0.60361526
H       -0.96661043      -0.63449824      -2.10856849      -0.53863412      -0.38149332      -0.14863106      -0.53863412      -0.38149332      -0.14863106      -0.48091352      -0.58322266      -0.79798774      -1.04381865      -0.98208255      -1.76187454      -0.53863412      -0.38149332      -0.14863106
H        0.42056148       0.68528173      -2.06503760       0.39530606       0.25199189      -0.11652677       0.39530606       0.25199189      -0.11652677       0.33898003       0.45247089      -0.66049311       1.00496645       0.96935708      -1.73041169       0.39530606       0.25199189      -0.11652677
6
Properties=species:S:1:pos:R:3:REF_forces:R:3:S0_forces:R:3:S1_forces:R:3:S2_forces:R:3:forces:R:3 REF_energy=-2569.6896475902836 split=train T=5000 traj_n=98 S0_energy=-2569.6896475902836 S1_energy=-2568.119936593943 S2_energy=-2566.6667203916204 energy=-2569.6896475902836 pbc="F F F"
C       -3.04840210       0.40985450       0.14640620       1.19399726      -1.22183896       0.91909052       1.19399726      -1.22183896       0.91909052      -0.01856625      -3.92088603       1.69052894      -0.31287803      -2.05324920       0.74395930       1.19399726      -1.22183896       0.91909052
N       -0.72764800       0.13007880       0.03372970      -0.95630246       0.12785187       3.93411122      -0.95630246       0.12785187       3.93411122       1.53289295       2.29161881       2.21157631       3.06339154       0.74635855       4.19066527      -0.95630246       0.12785187       3.93411122
H       -2.48462560       0.67713170       1.22253050      -2.13840965      -0.75003553      -2.60942539      -2.13840965      -0.75003553      -2.60942539      -2.14146633       0.43138024      -2.60646528      -2.01654958      -0.48163785      -2.43586985      -2.13840965      -0.75003553      -2.60942539
H       -3.86362880      -0.40202600      -0.48804570       2.79847374       2.08989390       1.77384796       2.79847374       2.08989390       1.77384796       1.85614600       3.04880685       1.36872800       2.25814619       2.37302308       1.94371984       2.79847374       2.08989390       1.77384796
H        0.03886240      -0.52458340      -0.18288850       0.05265357      -0.26340080      -1.18873112       0.05265357      -0.26340080      -1.18873112      -0.21243454      -1.05966282      -0.22167899      -0.81790161      -0.85460570      -1.88506459       0.05265357      -0.26340080      -1.18873112
H       -0.41444850       0.38022320       1.11681670      -0.95038547       0.01746551      -2.82891216      -0.95038547       0.01746551      -2.82891216      -1.01653446      -0.79122060      -2.44269597      -2.17414474       0.27008279      -2.55742318      -0.95038547       0.01746551      -2.82891216
6
Properties=species:S:1:pos:R:3:REF_forces:R:3:S0_forces:R:3:S1_forces:R:3:S2_forces:R:3:forces:R:3 REF_energy=-2568.600987253205 split=train T=0 traj_n=27_old S0_energy=-2568.600987253205 S1_energy=-2566.252543840001 S2_energy=-2565.483731432963 energy=-2568.600987253205 pbc="F F F"
C       -3.59633990       0.37995010       0.17852660       2.31811342      -2.07149267      -2.78530815       2.31811342      -2.07149267      -2.78530815       2.43726421      -3.14533749      -4.07717522       2.17353272      -2.17608397      -2.78919787       2.31811342      -2.07149267      -2.78530815
N       -0.29669550      -0.09002700       0.11588210       2.11996805      -3.39457629       1.12466386       2.11996805      -3.39457629       1.12466386       2.25682022      -3.42009881       0.99010542       5.38574609      -4.10978530       1.73312266       2.11996805      -3.39457629       1.12466386
H       -3.58143400      -0.76684430       0.03646630      -1.02190313       0.61031535       1.55850381      -1.02190313       0.61031535       1.55850381      -1.86202575      -0.19038007       2.98368507      -1.12103469       0.58215328       1.47290325      -1.02190313       0.61031535       1.55850381
H       -2.93335400       0.70985820      -0.71962820      -0.75209339       1.44023445       1.23386021      -0.75209339       1.44023445       1.23386021      -0.15779473       3.34906251       1.23955649      -0.82021077       1.41530986       1.14047187      -0.75209339       1.44023445       1.23386021
H        0.21033210      -1.05518290       0.61845610      -2.03415747       2.65713726      -0.96491246      -2.03415747       2.65713726      -0.96491246      -2.08045374       2.61007989      -0.89628308      -3.76723530       2.21097132      -0.18381877      -2.03415747       2.65713726      -0.96491246
H        0.58864950       0.05201890      -0.44194970      -0.62552039       0.75838134      -0.16677359      -0.62552039       0.75838134      -0.16677359      -0.59384219       0.79692387      -0.23973019      -1.85060352       2.07771870      -1.37324903      -0.62552039       0.75838134      -0.16677359
6
Properties=species:S:1:pos:R:3:REF_forces:R:3:S0_forces:R:3:S1_forces:R:3:S2_forces:R:3:forces:R:3 REF_energy=-2566.8833997910137 split=train T=5000 traj_n=49 S0_energy=-2566.8833997910137 S1_energy=-2559.902001099192 S2_energy=-2558.6234201811353 energy=-2566.8833997910137 pbc="F F F"
C       -1.72235550       0.41588330       0.99679020      -5.30825648       6.74692791      14.84737846      -5.30825648       6.74692791      14.84737846      -8.74671255      16.71606883      30.30423775      -8.63018239      14.34781010      29.03075005      -5.30825648       6.74692791      14.84737846
N       -1.33576510       0.02910080       0.10748890      11.72296040       0.23096813      -3.39081281      11.72296040       0.23096813      -3.39081281      18.15179474      -5.65965679     -18.19966899      17.93979735      -4.04955643     -17.25005598      11.72296040       0.23096813      -3.39081281
H       -2.29066080       0.18772440       1.77690390      -2.46495319       0.49495205       4.86306942      -2.46495319       0.49495205       4.86306942      -4.18074616      -2.03825823       3.47731146      -4.16288465      -1.02242753       3.80408672      -2.46495319       0.49495205       4.86306942
H       -5.86810960      -2.69141820     -13.70203760       0.00000920       0.00000653       0.00003224       0.00000920       0.00000653       0.00003224      -0.00000627      -0.00000458      -0.00002216       0.00001563       0.00001296       0.00005960       0.00000920       0.00000653       0.00003224
H       -3.36587300       3.11387460       1.29638590       0.01288385      -0.01945014      -0.00377962       0.01288385      -0.01945014      -0.00377962       0.12193874      -0.14776177      -0.01540338       0.31241842      -0.52128046      -0.16075104       0.01288385      -0.01945014      -0.00377962
H       -1.60030450      -0.30772080      -0.58930410      -3.96265484      -7.45333968     -16.31592534      -3.96265484      -7.45333968     -16.31592534      -5.34634440      -8.87107852     -15.56731779      -5.45910697      -8.75449462     -15.42652232      -3.96265484      -7.45333968     -16.31592534
6
Properties=species:S:1:pos:R:3:REF_forces:R:3:S0_forces:R:3:S1_forces:R:3:S2_forces:R:3:forces:R:3 REF_energy=-2567.7962222493015 split=train T=0 traj_n=80_old S0_energy=-2567.7962222493015 S1_energy=-2565.7533112098895 S2_energy=-2564.740156796679 energy=-2567.7962222493015 pbc="F F F"
C       -2.69645770       0.49949170       0.04806640       5.28108347       1.07613300      -3.11333419       5.28108347       1.07613300      -3.11333419       4.44649108       3.48605141      -1.23567669       4.70150149      -1.05362520       0.63208555       5.28108347       1.07613300      -3.11333419
N       -0.94728070       0.11786170       0.09688950      -5.20697589       1.39159421       5.26501788      -5.20697589       1.39159421       5.26501788      -2.80973877       1.59705262       3.73342812      -2.66169706       2.97912676       3.17884117      -5.20697589       1.39159421       5.26501788
H       -3.45724910      -0.10120410       1.16585540      -1.62273517       5.96347476      12.52522826      -1.62273517       5.96347476      12.52522826      -2.00004798       4.88629271      11.71148742      -1.58993154       7.32343762      12.42118697      -1.62273517       5.96347476      12.52522826
H       -3.37364380      -0.37082970       0.65380130       1.14298842      -7.66158389      -9.97210226       1.14298842      -7.66158389      -9.97210226       0.19634184      -8.35187680     -10.26087080       0.90818163      -7.73581010     -12.39695715       1.14298842      -7.66158389      -9.97210226
H       -0.72453620      -0.24499840      -0.76244520       1.29398942      -0.62865056      -3.67894314       1.29398942      -0.62865056      -3.67894314       0.88264507      -2.45407794      -2.88162127       0.37495835      -1.52366290      -3.36546456       1.29398942      -0.62865056      -3.67894314
H       -0.34761510      -0.07608710       0.95587570      -0.88797538      -0.14087661      -1.02581938      -0.88797538      -0.14087661      -1.02581938      -0.71546376       0.83653897      -1.06669170      -1.73305011       0.01080948      -0.46970376      -0.88797538      -0.14087661      -1.02581938
6
Properties=species:S:1:pos:R:3:REF_forces:R:3:S0_forces:R:3:S1_forces:R:3:S2_forces:R:3:forces:R:3 state=0 data_path=dataset_x/meci/x_conic_grad_e_RIGHT-BASIS.json name=00918-closeToCI_S2S0-state1.dat REF_energy=-2574.0173378036848 S0_energy=-2574.0173378036848 S1_energy=-2573.748557654017 S2_energy=-2568.836823656418 energy=-2574.0173378036848 pbc="F F F"
C       -0.27804192       0.01674984      -1.50909028      -0.16749566      -0.10369018      -1.97122792      -0.16749566      -0.10369018      -1.97122792      -0.01912068      -0.02516056      -3.25123460       0.10558185       0.08870677       2.58919446      -0.16749566      -0.10369018      -1.97122792
N       -0.29852557      -0.01134025      -0.17956708       0.01333750       0.02298407       2.24406461       0.01333750       0.02298407       2.24406461      -0.08973757      -0.19249501       2.91251693      -0.40154058      -0.41976538      -1.42574433       0.01333750       0.02298407       2.24406461
H       -0.95741685       0.57528394       0.39229579      -0.99034062      -1.73455184      -0.56018382      -0.99034062      -1.73455184      -0.56018382       1.63529110       1.19151532      -0.11577709       0.07570742       0.26248775       0.38338164      -0.99034062      -1.73455184      -0.56018382
H        0.26779660      -0.69588410       0.38393198       1.06272037       1.70441342      -0.31456133       1.06272037       1.70441342      -0.31456133      -1.62434982      -1.01438862      -0.37854432       0.16122170      -0.00052358       0.36769015       1.06272037       1.70441342      -0.31456133
H       -0.98832627      -0.62878967      -2.12383434      -0.78954604       1.68603214       0.32321536      -0.78954604       1.68603214       0.32321536       1.58678569      -0.97316925       0.43454876       0.02609891      -0.04465451      -0.90173665      -0.78954604       1.68603214       0.32321536
H        0.44212526       0.67999188      -2.08132822       0.87129283      -1.57514153       0.27790892       0.87129283      -1.57514153       0.27790892      -1.48882146       1.01359070       0.39934701       0.03291413       0.11372047      -1.01292715       0.87129283      -1.57514153       0.27790892
6
Properties=species:S:1:pos:R:3:REF_forces:R:3:S0_forces:R:3:S1_forces:R:3:S2_forces:R:3:forces:R:3 REF_energy=-2566.9784407863785 split=train T=5000 traj_n=37 S0_energy=-2566.9784407863785 S1_energy=-2565.4640464065656 S2_energy=-2564.156962195483 energy=-2566.9784407863785 pbc="F F F"
C       -3.31383810       0.37307590       0.20591120       3.66341630       2.32291305       2.13007269       3.66341630       2.32291305       2.13007269       5.15063468       1.37877860       1.95119568       4.93909762       2.06334459       1.46641394       3.66341630       2.32291305       2.13007269
N       -0.53174890       0.23736840       0.06353950      -0.65616188      -5.05001985       1.08767303      -0.65616188      -5.05001985       1.08767303      -1.08822536      -5.77610026       0.65567023      -0.67574865       1.06377817       1.66205161      -0.65616188      -5.05001985       1.08767303
H       -2.20184080       1.14531500       0.84113560      -2.38065011      -2.03442867      -2.00557395      -2.38065011      -2.03442867      -2.00557395      -2.68754492      -0.84287628      -1.40779463      -3.07691539      -1.89761887      -1.49590413      -2.38065011      -2.03442867      -2.00557395
H       -3.12363680      -0.63773760      -0.17877310      -0.15443019      -0.58771201      -0.53567267      -0.15443019      -0.58771201      -0.53567267      -1.70715534      -0.55814838      -0.67922519      -0.82450919      -0.53947410      -0.10020104      -0.15443019      -0.58771201      -0.53567267
H       -0.53895190      -0.59164790      -0.64069950      -0.43755237       1.97330198      -2.05862605      -0.43755237       1.97330198      -2.05862605       0.31053246       2.40456672      -2.03620176      -0.18160644      -1.66478176      -0.56546060      -0.43755237       1.97330198      -2.05862605
H       -0.40466600      -0.95656880       0.50582930      -0.03447346       3.37755157       1.38116042      -0.03447346       3.37755157       1.38116042       0.02184121       3.43658390       1.49491976      -0.17993481       0.97545640      -0.96751889      -0.03447346       3.37755157       1.38116042
6
Properties=species:S:1:pos:R:3:REF_forces:R:3:S0_forces:R:3:S1_forces:R:3:S2_forces:R:3:forces:R:3 REF_energy=-2566.593902866812 split=train T=5000 traj_n=49 S0_energy=-2566.593902866812 S1_energy=-2566.1328779057794 S2_energy=-2564.389727613426 energy=-2566.593902866812 pbc="F F F"
C       -2.30977320       0.45690530       0.84663060       2.32063084      -2.67288521      -5.79776201       2.32063084      -2.67288521      -5.79776201      -0.54501750      -1.10343919      -3.66366015       1.37116721      -3.00745651      -2.88186141       2.32063084      -2.67288521      -5.79776201
N       -1.19674310       0.24444400       0.11258130      -1.56458514      -4.35076212       2.39114221      -1.56458514      -4.35076212       2.39114221       3.10681752      -3.07630814      -0.77946114      -2.62439071      -2.97391292       0.11515283      -1.56458514      -4.35076212       2.39114221
H       -3.33503980      -0.09071230       0.32017190       1.72021454       2.09734568       1.94728493       1.72021454       2.09734568       1.94728493       1.88806064       0.73155923       1.82225644       1.73597299       2.18460013       1.46235555       1.72021454       2.09734568       1.94728493
H       -4.53048740      -1.46703790      -7.59366410       0.00022369       0.00010377       0.00058230       0.00022369       0.00010377       0.00058230       0.00018928       0.00009590       0.00046259       0.00008315       0.00002036       0.00015062       0.00022369       0.00010377       0.00058230
H       -0.23685880       0.50025680      -1.21160070      -1.25255707       0.59517669       1.24241211      -1.25255707       0.59517669       1.24241211      -2.36924418      -0.13188963       3.03996683       0.20635696       0.28726629       0.65328013      -1.25255707       0.59517669       1.24241211
H       -0.72097110      -1.00259290       0.22299300      -1.22395390       4.33124034       0.21638401      -1.22395390       4.33124034       0.21638401      -2.08092903       3.57979425      -0.41985444      -0.68904428       3.50942819       0.65070106      -1.22395390       4.33124034       0.21638401
6
Properties=species:S:1:pos:R:3:REF_forces:R:3:S0_forces:R:3:S1_forces:R:3:S2_forces:R:3:forces:R:3 REF_energy=-2569.997211488331 split=train T=5000 traj_n=60 S0_energy=-2569.997211488331 S1_energy=-2567.240147319868 S2_energy=-2564.5424775858323 energy=-2569.997211488331 pbc="F F F"
C       -2.37533130       0.93497700       0.06429400       5.55532548      -5.03806160       0.60318049       5.55532548      -5.03806160       0.60318049      -0.86530720      -0.30614215       0.36632422       3.68357067      -4.03180183       0.52753611       5.55532548      -5.03806160       0.60318049
N       -1.14792750      -0.02628060       0.16680100      -5.33571926       0.33006185      -0.42359833      -5.33571926       0.33006185      -0.42359833       0.92942625      -3.69002033      -0.67142359      -2.13897956      -0.27942453      -1.09988886      -5.33571926       0.33006185      -0.42359833
H       -4.08736860      -1.94542660       0.96751460      -0.26170798       1.48039231      -1.62349272      -0.26170798       1.48039231      -1.62349272      -0.28805912       1.45976707      -1.65810121      -0.28795113       1.45409732      -1.63133464      -0.26170798       1.48039231      -1.62349272
H       -4.20918850      -1.39007540       0.33433460       0.29093742      -1.42183311       1.60168298       0.29093742      -1.42183311       1.60168298       0.29297620      -1.46750851       1.65345163       0.29080680      -1.44004558       1.62164255       0.29093742      -1.42183311       1.60168298
H       -0.38841890       0.38372340      -0.26143110       2.87809685       4.01387445      -1.51580828       2.87809685       4.01387445      -1.51580828       3.07314774       3.80318626      -1.24822440       2.39395197       4.78141061      -1.07317710       2.87809685       4.01387445      -1.51580828
H       -0.54470710      -0.98295110      -0.07589520      -3.12698588       0.63566735       1.35800506      -3.12698588       0.63566735       1.35800506      -3.14182947       0.20078492       1.55787173      -3.89983476      -0.48512334       1.65516100      -3.12698588       0.63566735       1.35800506
6
Properties=species:S:1:pos:R:3:REF_forces:R:3:S0_forces:R:3:S1_forces:R:3:S2_forces:R:3:forces:R:3 REF_energy=-2571.8876011138905 split=train T=5000 traj_n=68 S0_energy=-2571.8876011138905 S1_energy=-2568.688701117731 S2_energy=-2566.422866563074 energy=-2571.8876011138905 pbc="F F F"
C       -2.52809420       0.34273240       0.11733720      -0.72320257      -0.63871915       3.99504457      -0.72320257      -0.63871915       3.99504457      -2.75349604       0.52316554       1.62850359      -6.69247096       0.37925333      -1.15301248      -0.72320257      -0.63871915       3.99504457
N       -1.10477280       0.24814170       0.09699750      -5.00927362      -2.10001634      -4.32836739      -5.00927362      -2.10001634      -4.32836739      -2.42245512      -1.73024761      -2.13535101       1.42471897      -1.68394964      -1.39633584      -5.00927362      -2.10001634      -4.32836739
H       -2.96266810       1.05469310       1.26100350       1.03617527      -2.29881425      -3.52326618       1.03617527      -2.29881425      -3.52326618       0.36695666      -1.01167425      -3.21573255       0.60391587      -1.70063446      -1.57772785       1.03617527      -2.29881425      -3.52326618
H       -3.55068810      -0.71390600      -0.39839490       2.66980426       3.34904307       0.42582192       2.66980426       3.34904307       0.42582192       2.51853046       2.00551194       1.92973926       2.24469520       2.58081487       1.54714473       2.66980426       3.34904307       0.42582192
H       -0.95567550      -0.23633360      -1.02389180       0.64363968       0.83335579       4.35358467       0.64363968       0.83335579       4.35358467       0.89448598       1.50381953       3.60122980       0.18203062       0.57483973       3.99196295       0.64363968       0.83335579       4.35358467
H       -1.07945190      -0.29623760       1.03474620       1.38265099       0.85516759      -0.92273989       1.38265099       0.85516759      -0.92273989       1.39505003      -1.29072983      -1.80790845       2.23697423      -0.15083486      -1.41116509       1.38265099       0.85516759      -0.92273989
6
Properties=species:S:1:pos:R:3:REF_forces:R:3:S0_forces:R:3:S1_forces:R:3:S2_forces:R:3:forces:R:3 state=0 data_path=dataset_x/meci/x_conic_grad_e_RIGHT-BASIS.json name=00849-closeToCI_S2S0-state1.dat REF_energy=-2574.24107710578 S0_energy=-2574.24107710578 S1_energy=-2573.650653335143 S2_energy=-2568.744205899823 energy=-2574.24107710578 pbc="F F F"
C       -0.27910512       0.01587116      -1.52480666      -0.06934132      -0.03877651      -0.61765241      -0.06934132      -0.03877651      -0.61765241      -0.03197008      -0.01413721      -1.40885722       0.12476233       0.10179842       4.10874421      -0.06934132      -0.03877651      -0.61765241
N       -0.29671515      -0.00853129      -0.16821076      -0.01784233      -0.01969141       0.58808420      -0.01784233      -0.01969141       0.58808420       0.08324374      -0.13506628       1.34564746      -0.35714688      -0.47494228      -2.78335272      -0.01784233      -0.01969141       0.58808420
H       -0.96433943       0.56479289       0.38821524      -1.29360550      -1.59674193      -0.29072813      -1.29360550      -1.59674193      -0.29072813       1.55027058       1.42722487       0.05003403      -0.03147663       0.49676530       0.55602887      -1.29360550      -1.59674193      -0.29072813
H        0.27443136      -0.68738778       0.38122787       1.36117564       1.59102210      -0.06016495       1.36117564       1.59102210      -0.06016495      -1.67010271      -1.26954712      -0.26902015       0.22839322      -0.17988519       0.50722778       1.36117564       1.59102210      -0.06016495
H       -1.01303865      -0.59771283      -2.11903416      -1.00277736       1.64051764       0.21086426      -1.00277736       1.64051764       0.21086426       1.44224875      -1.32013158       0.14016031      -0.20697516      -0.33854613      -1.15725501      -1.00277736       1.64051764       0.21086426
H        0.46649202       0.64919986      -2.07666143       1.02245838      -1.57630547       0.16943365       1.02245838      -1.57630547       0.16943365      -1.37369368       1.31161053       0.14236965       0.24243283       0.39480706      -1.23154894       1.02245838      -1.57630547       0.16943365
6
Properties=species:S:1:pos:R:3:REF_forces:R:3:S0_forces:R:3:S1_forces:R:3:S2_forces:R:3:forces:R:3 REF_energy=-2567.660045822718 split=train T=5000 traj_n=89 S0_energy=-2567.660045822718 S1_energy=-2566.9411490630837 S2_energy=-2565.392802737168 energy=-2567.660045822718 pbc="F F F"
C       -3.09206800       0.39054390       0.15447960       5.08419439       4.11221268       2.68740907       5.08419439       4.11221268       2.68740907       4.67475446       5.39727708       2.04186369       3.83603823       4.92049224       3.20149876       5.08419439       4.11221268       2.68740907
N       -0.65166980      -0.08534080       0.15732280      -1.41045248       4.71344525      -1.32761123      -1.41045248       4.71344525      -1.32761123      -2.57876555       5.84657641      -1.94096243      -0.61740553       7.20177800      -2.42542094      -1.41045248       4.71344525      -1.32761123
H       -2.47499400       1.57586350       0.58472930      -2.70722847      -3.47570781      -1.05038869      -2.70722847      -3.47570781      -1.05038869      -1.67086550      -3.71407054       0.05295866      -2.68070260      -3.63767077      -0.88305141      -2.70722847      -3.47570781      -1.05038869
H       -3.59698420       0.26820780      -0.76414030      -1.57887888      -0.56691960      -1.74480530      -1.57887888      -0.56691960      -1.74480530      -1.24283326      -2.06683342      -1.73693962      -0.89344088      -0.92034964      -1.88688287      -1.57887888      -0.56691960      -1.74480530
H       -0.74615770       0.73574320      -0.68228600      -0.06737684      -2.71929651       0.01950069      -0.06737684      -2.71929651       0.01950069       0.40499480      -3.31163871      -0.26869274       0.00608657      -4.48502580      -1.19695943      -0.06737684      -2.71929651       0.01950069
H       -0.54079650       0.92882390       0.61240580       0.68291698      -2.06368407       1.41586872       0.68291698      -2.06368407       1.41586872       0.41560436      -2.15150854       1.85182259       0.35205450      -3.08036596       3.19107381       0.68291698      -2.06368407       1.41586872
6
Properties=species:S:1:pos:R:3:REF_forces:R:3:S0_forces:R:3:S1_forces:R:3:S2_forces:R:3:forces:R:3 REF_energy=-2568.3718849268225 split=train T=5000 traj_n=90 S0_energy=-2568.3718849268225 S1_energy=-2566.290725829287 S2_energy=-2565.8537470302917 energy=-2568.3718849268225 pbc="F F F"
C       -2.61206760      -0.02051880       0.06591190       5.92291545      -0.41403007      -2.17443163       5.92291545      -0.41403007      -2.17443163       1.77290797      -2.42426456       0.38204750       2.42058382      -0.04920259      -1.96981618       5.92291545      -0.41403007      -2.17443163
N       -0.99810450       0.24059500      -0.02609840      -0.88092984      -1.60330215       2.89380094      -0.88092984      -1.60330215       2.89380094       2.87636362      -0.31636851       1.10877074       2.03620124      -1.38074400       2.95403084      -0.88092984      -1.60330215       2.89380094
H       -3.29607740       5.89714700       4.01280600       0.00031146      -0.00090539      -0.00061403       0.00031146      -0.00090539      -0.00061403       0.00026570      -0.00073852      -0.00051998       0.00028560      -0.00081499      -0.00054065       0.00031146      -0.00090539      -0.00061403
H       -3.22759940      -0.83681900      -0.65895930       1.62896511       1.71514011       1.88416969       1.62896511       1.71514011       1.88416969       1.59097510       2.48672782       0.49562594       1.69770870       1.19749375       1.76223439       1.62896511       1.71514011       1.88416969
H       -0.46344660       1.09872730       0.50274420      -2.57253705      -1.43473578      -1.30293660      -2.57253705      -1.43473578      -1.30293660      -2.20433027      -1.24806221      -1.87299079      -2.52058745      -1.46435520      -1.21789422      -2.57253705      -1.43473578      -1.30293660
H        0.00050220      -0.56993770       0.17880510      -4.09874632       1.73785118      -1.30030390      -4.09874632       1.73785118      -1.30030390      -4.03552062       1.50278549      -0.11370386      -3.63475333       1.69737044      -1.53040932      -4.09874632       1.73785118      -1.30030390
6
Properties=species:S:1:pos:R:3:REF_forces:R:3:S0_forces:R:3:S1_forces:R:3:S2_forces:R:3:forces:R:3 REF_energy=-2574.1057412878636 split=train T=0 traj_n=32_old S0_energy=-2574.1057412878636 S1_energy=-2568.6354789405787 S2_energy=-2565.958829785971 energy=-2574.1057412878636 pbc="F F F"
C       -1.72154380       0.76203130      -0.52799160       7.61264165      -4.45517822      -0.30709428       7.61264165      -4.45517822      -0.30709428       1.46023619       0.32458205      -4.29126380      12.75560632       4.29319917      -6.89035706       7.61264165      -4.45517822      -0.30709428
N       -2.47721000       0.09300810       0.27579560      -4.46854318      -1.45013325     -12.02831384      -4.46854318      -1.45013325     -12.02831384      -2.60076849      -3.35531513      -8.03430342     -12.15044937      -8.14842513      -5.38491120      -4.46854318      -1.45013325     -12.02831384
H       -0.76568410       0.79061750       0.11338680      -0.43609009       2.48225415      -1.17229262      -0.43609009       2.48225415      -1.17229262       2.26843518       0.00409392      -0.48544416      -0.02727750       1.86886947      -1.45377465      -0.43609009       2.48225415      -1.17229262
H       -1.32095700       0.08470880      -1.53708010      -2.17964732       2.75837697       1.39937921      -2.17964732       2.75837697       1.39937921       0.45839199       1.66508664       1.58417716      -1.25903337       1.37846235       1.70714254      -2.17964732       2.75837697       1.39937921
H       -3.24501420      -0.22341870      -0.45844760       0.14835297      -0.60147286       3.53103425       0.14835297      -0.60147286       3.53103425      -0.10603050      -0.00459194       2.46082765       0.23412040      -0.57074314       3.35981013       0.14835297      -0.60147286       3.53103425