6
Properties=species:S:1:pos:R:3:REF_forces:R:3:S0_forces:R:3:S1_forces:R:3:S2_forces:R:3:forces:R:3 state=0 data_path=dataset_x/meci/x_conic_grad_e_RIGHT-BASIS.json name=00720-closeToCI_S2S1-state1.dat REF_energy=-2575.0358665116228 S0_energy=-2575.0358665116228 S1_energy=-2569.967452355581 S2_energy=-2569.5908711788416 energy=-2575.0358665116228 pbc="F F F"
C       -0.25466428      -0.07104679      -1.58076418      -1.69081053       4.62335692       4.08971640      -1.69081053       4.62335692       4.08971640      -0.13877690       1.69870675      -4.95879602      -1.31038447      -0.84352862       4.97573584      -1.69081053       4.62335692       4.08971640
N       -0.32664055      -0.04795283      -0.09817207       2.55564609       1.68650316      -6.80576997       2.55564609       1.68650316      -6.80576997       0.97731166      -0.80574044       3.20100228       2.73093502      -0.00517152      -3.77861356       2.55564609       1.68650316      -6.80576997
H       -1.15864796       0.35452898       0.32279321      -1.20739723      -0.66170245       0.13890607      -1.20739723      -0.66170245       0.13890607      -0.83796994       0.15380479       0.35654169      -0.92237268       0.93356043      -0.03451763      -1.20739723      -0.66170245       0.13890607
H        0.54349210       0.38638066       0.33032798      -0.48008948      -1.45274487      -0.22671357      -0.48008948      -1.45274487      -0.22671357      -0.75739254       0.44992272      -0.77145139      -0.56058476      -0.97582381       0.13828782      -0.48008948      -1.45274487      -0.22671357
H       -1.12417062       0.40634034      -2.20740542      -0.13601430      -2.27414889       1.44832818      -0.13601430      -2.27414889       1.44832818       0.27367379      -0.37439857       1.59939022      -0.16770094      -0.18833476      -1.09361244      -0.13601430      -2.27414889       1.44832818
H        0.57654883       0.38469156      -2.21460538       0.95868016      -1.92136430       1.35551464       0.95868016      -1.92136430       1.35551464       0.48341186      -1.12267794       0.58710214       0.22976629       1.07971331      -0.22102274       0.95868016      -1.92136430       1.35551464
6
Properties=species:S:1:pos:R:3:REF_forces:R:3:S0_forces:R:3:S1_forces:R:3:S2_forces:R:3:forces:R:3 REF_energy=-2570.5907847745557 split=train T=0 traj_n=16_old S0_energy=-2570.5907847745557 S1_energy=-2569.0798262235558 S2_energy=-2568.178371298024 energy=-2570.5907847745557 pbc="F F F"
C       -3.05131920       0.44682990       0.13584340       5.21349847       1.19788559       4.69856637       5.21349847       1.19788559       4.69856637       4.54772509       2.77925165       3.60236936       1.16900233       1.63972024       4.26941256       5.21349847       1.19788559       4.69856637
N       -0.72182590       0.06152080       0.14042430      -3.28084877      -1.12190146      -3.68639965      -3.28084877      -1.12190146      -3.68639965      -0.67694683      -0.98418263      -3.00389975       1.18249610       0.47157825      -3.05736369      -3.28084877      -1.12190146      -3.68639965
H       -3.61177240       0.40786140      -0.71566440      -1.69470678      -0.21301272      -3.34340017      -1.69470678      -0.21301272      -3.34340017      -2.36003937      -1.32199424      -2.91492559      -1.21980964      -1.08245524      -3.72646660      -1.69470678      -0.21301272      -3.34340017
H       -2.86259460       1.25503590       0.93233860      -0.65334498      -1.10513062      -0.89114987      -0.65334498      -1.10513062      -0.89114987      -0.76596033      -1.36331604      -0.56480759       0.86168400      -1.29143688      -0.42732041      -0.65334498      -1.10513062      -0.89114987
H       -0.50649750      -0.52212410       0.96859360       0.37301567       0.03484303      -0.00303082       0.37301567       0.03484303      -0.00303082      -0.23736071      -0.39936897      -0.14575035      -0.83336633      -0.62557793       0.05800203       0.37301567       0.03484303      -0.00303082
H       -0.55106740      -0.40989190      -0.90362620       0.04219973       1.20717735       3.22539331       0.04219973       1.20717735       3.22539331      -0.50762116       1.28926445       3.02692321      -1.16046678       0.88787460       2.88360888       0.04219973       1.20717735       3.22539331
6
Properties=species:S:1:pos:R:3:REF_forces:R:3:S0_forces:R:3:S1_forces:R:3:S2_forces:R:3:forces:R:3 REF_energy=-2568.31850412865 split=train T=5000 traj_n=96 S0_energy=-2568.31850412865 S1_energy=-2567.9800501806762 S2_energy=-2567.3064715278488 energy=-2568.31850412865 pbc="F F F"
C       -3.82129210       0.39990100       0.41979520      -1.05987426       0.23599361      -0.08240978      -1.05987426       0.23599361      -0.08240978      -1.10353345       0.47745914      -0.45919088      -3.72462687       0.39027020      -0.68663696      -1.05987426       0.23599361      -0.08240978
N        0.14568400       0.06508990      -0.08632000       0.87735112       0.18366193       1.25877086       0.87735112       0.18366193       1.25877086       3.21678865       1.30960219       1.38024552       3.19260609       1.35135881       1.39475847       0.87735112       0.18366193       1.25877086
H       -4.26987710       1.51745870       0.69107700       1.01272167      -2.94950976      -0.88124393       1.01272167      -2.94950976      -0.88124393       0.83031844      -2.65826417      -0.54692238       2.02098458      -2.09915836      -0.26073827       1.01272167      -2.94950976      -0.88124393
H       -4.07862620      -0.69501900      -0.02741600       0.35132338       2.65524287       0.93442946       0.35132338       2.65524287       0.93442946       0.30801448       2.20394810       0.98085891       1.63479539       1.74884100       0.97009720       0.35132338       2.65524287       0.93442946
H       -0.22272640       0.15003240      -0.99055590      -0.92415698       0.39568396      -2.79989916      -0.92415698       0.39568396      -2.79989916      -1.89499126      -0.56074679      -1.50625503      -1.84580672      -0.58818879      -1.52859612      -0.92415698       0.39568396      -2.79989916
H       -0.12192100      -0.30747260       0.80671680      -0.25120909      -0.52184440       1.57058651      -0.25120909      -0.52184440       1.57058651      -1.35651788      -0.77192668       0.15121831      -1.27745836      -0.80323845       0.11113548      -0.25120909      -0.52184440       1.57058651
6
Properties=species:S:1:pos:R:3:REF_forces:R:3:S0_forces:R:3:S1_forces:R:3:S2_forces:R:3:forces:R:3 REF_energy=-2567.364802844582 split=train T=5000 traj_n=14 S0_energy=-2567.364802844582 S1_energy=-2566.592409902417 S2_energy=-2565.709757334547 energy=-2567.364802844582 pbc="F F F"
C       -3.85270500       0.47937020       0.51207820      -0.53143292       9.90445885      -2.94481806      -0.53143292       9.90445885      -2.94481806      -0.95812187       9.64251911      -3.01925377       1.14534699       6.85741326      -4.85466047      -0.53143292       9.90445885      -2.94481806
N       -0.07802400       0.02928130      -0.11590750      -1.40788611       1.71279830       1.73096299      -1.40788611       1.71279830       1.73096299      -3.08001382       2.10584570       3.34756351      -1.29175709       1.68188155       1.35314974      -1.40788611       1.71279830       1.73096299
H       -3.85694120      -0.33505700       0.89731580      -0.70661284     -11.55041165       6.38349833      -0.70661284     -11.55041165       6.38349833      -0.57367096     -11.11080584       6.14484497      -2.12409945     -10.77329443       8.48127102      -0.70661284     -11.55041165       6.38349833
H       -3.38748610       0.66955750      -0.37420530       1.46529525       1.61473564      -3.49947345       1.46529525       1.61473564      -3.49947345       1.41643848       1.48545512      -3.17966274       0.98152781       3.91353488      -3.70688106       1.46529525       1.61473564      -3.49947345
H       -0.71392340      -0.73426390       0.31312010       0.64819485       0.88251570      -0.37791306       0.64819485       0.88251570      -0.37791306       1.44948744      -0.30756335      -1.26626573       0.76651908       1.14123637      -0.15886138       0.64819485       0.88251570      -0.37791306
H       -0.32575280       1.02628760       0.41850670       0.53261270      -2.56395846      -1.29233579       0.53261270      -2.56395846      -1.29233579       1.74550448      -1.81534429      -2.02710632       0.51820053      -2.82067038      -1.11389325       0.53261270      -2.56395846      -1.29233579
6
Properties=species:S:1:pos:R:3:REF_forces:R:3:S0_forces:R:3:S1_forces:R:3:S2_forces:R:3:forces:R:3 state=0 data_path=dataset_x/meci/x_conic_grad_e_RIGHT-BASIS.json name=00658-closeToCI_S1S0-state1.dat REF_energy=-2571.8184625477925 S0_energy=-2571.8184625477925 S1_energy=-2571.3532433289442 S2_energy=-2567.9825423782145 energy=-2571.8184625477925 pbc="F F F"
C       -0.19811469      -0.18133162      -1.50138997      -1.35254640       0.09101166      -0.04724382      -1.35254640       0.09101166      -0.04724382       1.39770922       1.85241841      -0.79176866      -6.39646821       9.17094476      -2.65884745      -1.35254640       0.09101166      -0.04724382
N       -0.30590844       0.05484839      -0.18871528       0.58462792       0.16942496       0.06863997       0.58462792       0.16942496       0.06863997      -0.84770856      -0.56365414       0.47421225       2.86746570      -3.66468118       3.35126291       0.58462792       0.16942496       0.06863997
H       -0.87524053       0.80559257       0.24934200       0.81739618       0.59680281      -0.07829241       0.81739618       0.59680281      -0.07829241      -0.71672437      -0.54453300       0.03828003      -0.35221144      -0.02734096      -0.49863516       0.81739618       0.59680281      -0.07829241
H        0.17256895      -0.58171348       0.47652872      -0.49324803      -0.32058707      -0.08617351      -0.49324803      -0.32058707      -0.08617351       0.54624155       0.43217152      -0.09618909      -0.24777924       0.52450076       0.35227047      -0.49324803      -0.32058707      -0.08617351
H       -1.16170887       0.16048679      -2.08800391       0.81728326      -1.72781704      -1.09968178       0.81728326      -1.72781704      -1.09968178      -2.00204897       0.83599009       1.02605320      -1.80116105      -5.94098625      -0.18791027       0.81728326      -1.72781704      -1.09968178
H       -0.29248581       0.91905712      -2.07339527      -0.37134909       1.19370693       1.24262855      -0.37134909       1.19370693       1.24262855       1.62036405      -2.01470805      -0.65072528       5.93015656      -0.06251720      -0.35817758      -0.37134909       1.19370693       1.24262855
6
Properties=species:S:1:pos:R:3:REF_forces:R:3:S0_forces:R:3:S1_forces:R:3:S2_forces:R:3:forces:R:3 state=0 data_path=dataset_x/meci/x_conic_grad_e_RIGHT-BASIS.json name=00923-closeToCI_S2S0-state1.dat REF_energy=-2574.158311618958 S0_energy=-2574.158311618958 S1_energy=-2573.757605488062 S2_energy=-2568.7109525017277 energy=-2574.158311618958 pbc="F F F"
C       -0.27939689       0.01551887      -1.53007350      -0.03224354      -0.03336166      -0.20995877      -0.03224354      -0.03336166      -0.20995877      -0.00808571      -0.01390412      -0.77661473       0.14567357       0.10253586       4.67771010      -0.03224354      -0.03336166      -0.20995877
N       -0.29451272      -0.00928032      -0.16441876       0.02014048      -0.03119376       0.21022791       0.02014048      -0.03119376       0.21022791      -0.10319638       0.08593193       0.73895140      -0.49493673      -0.34442896      -3.31051283       0.02014048      -0.03119376       0.21022791
H       -0.94480526       0.58456024       0.38870939       1.56086548       1.35798449       0.02371221       1.56086548       1.35798449       0.02371221      -1.39972168      -1.53832266      -0.20356834      -0.19328917       0.34546574       0.58343045       1.56086548       1.35798449       0.02371221
H        0.25232774      -0.70522278       0.37848941      -1.60173980      -1.28416914      -0.21496028      -1.60173980      -1.28416914      -0.21496028       1.53108161       1.41401305       0.10412418       0.51020039      -0.14590271       0.61147044      -1.60173980      -1.28416914      -0.21496028
H       -0.94433969      -0.66813938      -2.11797718       1.46992894      -1.21600328       0.09180243       1.46992894      -1.21600328       0.09180243      -1.29871434       1.42976399       0.08194405      -0.43441028      -0.32265162      -1.24988389       1.46992894      -1.21600328       0.09180243
H        0.39864178       0.71871013      -2.07456282      -1.41687844       1.20681812       0.09882118      -1.41687844       1.20681812       0.09882118       1.27858558      -1.37751665       0.05560859       0.46678129       0.36499651      -1.31240140      -1.41687844       1.20681812       0.09882118
6
Properties=species:S:1:pos:R:3:REF_forces:R:3:S0_forces:R:3:S1_forces:R:3:S2_forces:R:3:forces:R:3 REF_energy=-2566.3340730052814 split=train T=5000 traj_n=49 S0_energy=-2566.3340730052814 S1_energy=-2563.5431457923273 S2_energy=-2562.4809872647083 energy=-2566.3340730052814 pbc="F F F"
C       -1.56664800       0.40301960       1.25776910      -2.03264643      -4.38597194      -7.27258017      -2.03264643      -4.38597194      -7.27258017      -2.21885140      -1.52282801       1.37045414      -1.93530991      -1.99239957       1.66166671      -2.03264643      -4.38597194      -7.27258017
N       -1.36665880      -0.01663850      -0.00105260      -2.77841841       2.33776595       4.89081610      -2.77841841       2.33776595       4.89081610      -0.74391852       0.33181364      -3.00338954      -0.59972174       1.10261716      -3.16605107      -2.77841841       2.33776595       4.89081610
H       -2.51469710       0.07482350       2.20256980       3.32142927       1.21030196      -2.45310041       3.32142927       1.21030196      -2.45310041       2.36695713       0.88042873      -2.95257153       2.01457168       0.99386103      -2.59617151       3.32142927       1.21030196      -2.45310041
H       -6.12329480      -2.92501680     -14.86739550       0.00000535       0.00000375       0.00001795       0.00000535       0.00000375       0.00001795       0.00000422       0.00000273       0.00001378       0.00000566       0.00000381       0.00001990       0.00000535       0.00000375       0.00001795
H       -4.06845040       3.90682550       1.02422110       0.00490021      -0.00827731       0.00054867       0.00490021      -0.00827731       0.00054867       0.00542107      -0.00851071       0.00031938       0.00908777      -0.01371699      -0.00058590       0.00490021      -0.00827731       0.00054867
H       -1.69845140      -0.17871980      -1.41509690       1.48475958       0.84618122       4.83434475       1.48475958       0.84618122       4.83434475       0.59038745       0.31921549       4.58524494       0.51139235      -0.08906549       4.10101038       1.48475958       0.84618122       4.83434475
6
Properties=species:S:1:pos:R:3:REF_forces:R:3:S0_forces:R:3:S1_forces:R:3:S2_forces:R:3:forces:R:3 REF_energy=-2565.545514952334 split=train T=5000 traj_n=67 S0_energy=-2565.545514952334 S1_energy=-2565.2882394348753 S2_energy=-2563.9053875024993 energy=-2565.545514952334 pbc="F F F"
C       -2.90636120       0.37030100       0.10447210       7.86597210       0.52138197       2.22162305       7.86597210       0.52138197       2.22162305       6.45692581       2.09519505       0.32880879       5.58799829       2.47754985       0.56139893       7.86597210       0.52138197       2.22162305
N       -0.75837460       0.14793590       0.22997170      -0.75614988       0.74520567       1.62278510      -0.75614988       0.74520567       1.62278510      -3.09107363       0.98879354       3.49072671      -0.46138835       0.76152466       2.40105922      -0.75614988       0.74520567       1.62278510
H       -2.94921840       1.07361870       0.83501840      -0.75274666       3.21257194       2.30268047      -0.75274666       3.21257194       2.30268047       0.61852576       2.53250055       2.90825373       0.08192204       2.64282906       2.60907572      -0.75274666       3.21257194       2.30268047
H       -3.61078490      -0.18641270      -0.27420300      -4.45059256      -3.64691224      -3.40344597      -4.45059256      -3.64691224      -3.40344597      -3.51302496      -4.68698828      -3.21360059      -3.65972163      -4.77679723      -2.69988216      -4.45059256      -3.64691224      -3.40344597
H       -1.12960760      -1.02269030      -2.42381770      -0.01634594      -0.02032539      -0.03671099      -0.01634594      -0.02032539      -0.03671099       0.06970796       0.01722372       0.05941825      -0.02542600      -0.00159336      -0.01855375      -0.01634594      -0.02032539      -0.03671099
H       -0.33616980       0.49154670       1.33245500      -1.89044328      -0.81160683      -2.70754081      -1.89044328      -0.81160683      -2.70754081      -0.53927258      -0.94696863      -3.57546734      -1.52311371      -1.10352877      -2.85303702      -1.89044328      -0.81160683      -2.70754081
6
Properties=species:S:1:pos:R:3:REF_forces:R:3:S0_forces:R:3:S1_forces:R:3:S2_forces:R:3:forces:R:3 state=0 data_path=dataset_x/meci/x_conic_grad_e_RIGHT-BASIS.json name=00886-closeToCI_S2S0-state1.dat REF_energy=-2574.231364523752 S0_energy=-2574.231364523752 S1_energy=-2573.628057948723 S2_energy=-2568.7760947289516 energy=-2574.231364523752 pbc="F F F"
C       -0.27869178       0.01610815      -1.51959427      -0.06119288      -0.08629106      -1.10145235      -0.06119288      -0.08629106      -1.10145235      -0.04428520      -0.02581352      -1.96022519       0.12581391       0.08465414       3.58657811      -0.06119288      -0.08629106      -1.10145235
N       -0.29581373      -0.01105382      -0.17199002      -0.03141791      -0.01930117       1.08610471      -0.03141791      -0.01930117       1.08610471      -0.13428220       0.05442470       1.87190820      -0.50632486      -0.31103727      -2.30913554      -0.03141791      -0.01930117       1.08610471
H       -0.94147501       0.59018578       0.39132067       1.73483415       1.22392542      -0.13889944       1.73483415       1.22392542      -0.13889944      -1.29979189      -1.66001113      -0.33492488      -0.12393654       0.16674685       0.45011741       1.73483415       1.22392542      -0.13889944
H        0.24933488      -0.70967128       0.38040021      -1.72448648      -1.15215512      -0.36104354      -1.72448648      -1.15215512      -0.36104354       1.46334605       1.55118018      -0.00814901       0.45598446       0.00264088       0.49827171      -1.72448648      -1.15215512      -0.36104354
H       -0.93239044      -0.68410518      -2.12114535       1.67073839      -1.01118235       0.26371807       1.67073839      -1.01118235       0.26371807      -1.18200944       1.58327974       0.23825947      -0.27342147      -0.07583238      -1.06831751       1.67073839      -1.01118235       0.26371807
H        0.38686624       0.73454553      -2.07770595      -1.58844791       1.04502136       0.25143822      -1.58844791       1.04502136       0.25143822       1.19698087      -1.50310713       0.19346740       0.32177235       0.13281723      -1.15768757      -1.58844791       1.04502136       0.25143822
6
Properties=species:S:1:pos:R:3:REF_forces:R:3:S0_forces:R:3:S1_forces:R:3:S2_forces:R:3:forces:R:3 REF_energy=-2568.5461052376145 split=train T=5000 traj_n=39 S0_energy=-2568.5461052376145 S1_energy=-2566.3705490706543 S2_energy=-2565.7499337782624 energy=-2568.5461052376145 pbc="F F F"
C       -2.68356930       0.42789820       0.52011720       7.17119554     -10.29719396       3.39112504       7.17119554     -10.29719396       3.39112504       3.56293861     -11.15951482       4.06842432       3.82496120      -9.59730482       4.31384174       7.17119554     -10.29719396       3.39112504
N       -1.20084530       0.07722700      -0.02944040      -4.83834513       0.35217303       3.35742590      -4.83834513       0.35217303       3.35742590      -1.23665248       2.46427571       1.37740733      -2.36267876      -1.97425837       1.44279023      -4.83834513       0.35217303       3.35742590
H       -2.63347730       1.21412880       0.01584070      -2.17999632       8.59688963      -4.61970909      -2.17999632       8.59688963      -4.61970909      -2.06671901       8.37964199      -5.03035374      -1.44570925       9.15336993      -4.06198211      -2.17999632       8.59688963      -4.61970909
H       -3.11041720      -0.35616610       1.27561530       0.11051821       1.49254051      -1.46320587       0.11051821       1.49254051      -1.46320587       0.42478438       2.19835914      -0.42263051       0.09137732       1.27228581      -1.48872145       0.11051821       1.49254051      -1.46320587
H        1.57737400      -0.26021750      -3.24203860      -0.00485136       0.00100288       0.00626830      -0.00485136       0.00100288       0.00626830      -0.00767202       0.00029496       0.00946269      -0.00433925       0.00089243       0.00724414      -0.00485136       0.00100288       0.00626830
H       -0.35789330       0.03789690       0.61739640      -0.25838473      -0.12344644      -0.67203643      -0.25838473      -0.12344644      -0.67203643      -0.67667522      -1.89748456      -0.00227399      -0.10208334       1.15559618      -0.21288366      -0.25838473      -0.12344644      -0.67203643
6
Properties=species:S:1:pos:R:3:REF_forces:R:3:S0_forces:R:3:S1_forces:R:3:S2_forces:R:3:forces:R:3 REF_energy=-2570.1965936931865 split=train T=5000 traj_n=21 S0_energy=-2570.1965936931865 S1_energy=-2568.0246520843475 S2_energy=-2565.6164162623586 energy=-2570.1965936931865 pbc="F F F"
C       -2.57444720       0.25213470       0.22594470       1.32902760      -2.39831498      -5.09269646       1.32902760      -2.39831498      -5.09269646      -3.02114908      -5.04318493      -3.80896425      -4.51204871      -2.36829549      -1.21745878       1.32902760      -2.39831498      -5.09269646
N       -1.09300480       0.04999550       0.11199920      -1.09291274       4.92941330      -1.19461160      -1.09291274       4.92941330      -1.19461160       2.43666206       2.60414147       0.55718936       4.50269885      -1.16619705      -3.07256575      -1.09291274       4.92941330      -1.19461160
H       -2.26617840       1.17769030       0.42801440      -2.15726144       5.20076930       3.28179360      -2.15726144       5.20076930       3.28179360      -0.98579738       6.28359760       0.55224194      -3.02188282       6.08967557       2.82375560      -2.15726144       5.20076930       3.28179360
H       -3.61996560       0.04984250      -0.55885020       3.12610944      -0.80299661       2.54163815       3.12610944      -0.80299661       2.54163815       2.91849037       0.26252672       2.52949668       3.50713096       0.22590599       1.26827109       3.12610944      -0.80299661       2.54163815
H       -0.73865890       0.52345890      -0.83790350      -0.43605430      -2.84237301       0.89429793      -0.43605430      -2.84237301       0.89429793      -1.31011307      -0.22629834       0.71666935       0.44230938      -1.53339349       1.07981209      -0.43605430      -2.84237301       0.89429793
H       -0.64258350       1.34312150       0.61824340      -0.76714638      -4.08286153      -0.42851428      -0.76714638      -4.08286153      -0.42851428      -0.03785939      -3.88019451      -0.54625862      -0.90095920      -1.21484448      -0.86509863      -0.76714638      -4.08286153      -0.42851428
6
Properties=species:S:1:pos:R:3:REF_forces:R:3:S0_forces:R:3:S1_forces:R:3:S2_forces:R:3:forces:R:3 REF_energy=-2571.1480079887788 split=train T=0 traj_n=39_old S0_energy=-2571.1480079887788 S1_energy=-2568.327519982377 S2_energy=-2563.440904509932 energy=-2571.1480079887788 pbc="F F F"
C       -2.38819640       0.07958380       0.23077710     -20.28813722       4.75797640      -4.23808320     -20.28813722       4.75797640      -4.23808320     -17.98484133       2.01212389      -4.30958415     -22.94385944       2.09693312      -4.14925965     -20.28813722       4.75797640      -4.23808320
N       -1.28581220       0.32732870       0.11305710      20.11510778       0.30682236      -2.33538193      20.11510778       0.30682236      -2.33538193      19.71328983      -0.33366422       0.09748729      23.36508274       0.36662895       1.04081689      20.11510778       0.30682236      -2.33538193
H       -2.98401950      -0.55481280       0.66048410      -2.64200168      -5.22955532       3.75021896      -2.64200168      -5.22955532       3.75021896      -4.13631826      -5.04276281       2.66273419      -4.12731688      -4.60185201       2.90601199      -2.64200168      -5.22955532       3.75021896
H       -3.24515330       0.91466830      -0.21146060       1.92475975      -1.71238656       0.38813556       1.92475975      -1.71238656       0.38813556       0.67489931      -0.37346408       0.51746437       0.21422762      -0.87606747      -0.08887327       1.92475975      -1.71238656       0.38813556
H       -0.52916720      -0.43644700      -0.32441500      -1.49799146       2.46876434       1.35636562      -1.49799146       2.46876434       1.35636562      -1.23797948       1.73252817      -0.42917017      -0.35962917       1.55691451      -1.11313086      -1.49799146       2.46876434       1.35636562
H       -1.24988640      -0.00472470       1.12273500       2.38824803      -0.59161875       1.07872297       2.38824803      -0.59161875       1.07872297       2.97396584       2.00635654       1.46085125       3.85652406       1.45115125       1.40323123       2.38824803      -0.59161875       1.07872297
6
Properties=species:S:1:pos:R:3:REF_forces:R:3:S0_forces:R:3:S1_forces:R:3:S2_forces:R:3:forces:R:3 REF_energy=-2567.3497953786245 split=train T=5000 traj_n=66 S0_energy=-2567.3497953786245 S1_energy=-2565.2639064589516 S2_energy=-2563.9095332051884 energy=-2567.3497953786245 pbc="F F F"
C       -2.45744760      -0.66772460      -0.20202940       6.81031332       6.69699343       3.67103037       6.81031332       6.69699343       3.67103037       0.83834584       2.77827356       3.28211036       0.20217162       1.57890588       3.47942069       6.81031332       6.69699343       3.67103037
N       -1.23548220      -0.03993630      -0.00143720      -8.08671289      -1.96633187      -1.34154686      -8.08671289      -1.96633187      -1.34154686      -1.65191298       0.75169168      -1.61941192      -1.04950814       1.73953782      -2.32851137      -8.08671289      -1.96633187      -1.34154686
H       -3.35457330      -0.23280310       0.59530990       1.60264267      -2.00022672      -1.99496841       1.60264267      -2.00022672      -1.99496841       1.70363874      -1.15298286      -2.22948106       1.30348188      -0.91373511      -2.19434652       1.60264267      -2.00022672      -1.99496841
H       -0.27340200       5.28106880       0.74119030      -0.02713044      -0.25282436       0.09881845      -0.02713044      -0.25282436       0.09881845       0.01086811       0.10350254      -0.04329337       0.01074742       0.10333131      -0.04348980      -0.02713044      -0.25282436       0.09881845
H       -0.87212490       1.02932670      -0.09329930      -0.31713511      -2.68648460      -0.29571535      -0.31713511      -2.68648460      -0.29571535      -0.87616667      -2.33526119       0.61266421      -0.44733064      -2.36047291       1.08750339      -0.31713511      -2.68648460      -0.29571535
H       -0.52331950       2.83955940       1.78118910       0.01801274       0.20840659      -0.13761995       0.01801274       0.20840659      -0.13761995      -0.02472800      -0.14586193      -0.00254123      -0.01965578      -0.14725557      -0.00046835       0.01801274       0.20840659      -0.13761995
6
Properties=species:S:1:pos:R:3:REF_forces:R:3:S0_forces:R:3:S1_forces:R:3:S2_forces:R:3:forces:R:3 REF_energy=-2569.0782660277714 split=train T=0 traj_n=56_old S0_energy=-2569.0782660277714 S1_energy=-2567.9583441764216 S2_energy=-2567.78321161809 energy=-2569.0782660277714 pbc="F F F"
C       -3.90262750       0.66742020       0.35292410       0.22401607      -1.86325119       1.02750531       0.22401607      -1.86325119       1.02750531       0.37422692      -3.79047895       3.24086837       0.39393021      -1.77752433       1.12806291       0.22401607      -1.86325119       1.02750531
N        0.01129550      -0.12317950      -0.18344720      -0.94117264      -0.95278200      -0.50921520      -0.94117264      -0.95278200      -0.50921520      -0.86465188      -0.97940521      -0.64294481       1.86896794       0.21286987       0.81029685      -0.94117264      -0.95278200      -0.50921520
H       -3.88893490      -0.48131960      -0.02887040      -0.00491826       2.30121901       0.55602198      -0.00491826       2.30121901       0.55602198      -0.08886417       2.54211427      -1.15793671      -0.13632309       2.59591831       0.87347076      -0.00491826       2.30121901       0.55602198
H       -3.85806980       1.13716910       1.43366670      -0.05741629      -0.52806365      -1.67489694      -0.05741629      -0.52806365      -1.67489694      -0.15804182       1.18165241      -2.13838872      -0.17753078      -0.85221956      -1.95920030      -0.05741629      -0.52806365      -1.67489694
H        0.01009030       0.76449830       0.30183320       0.54904112       0.90018360       0.54901125       0.54904112       0.90018360       0.54901125       0.52895731       0.86910708       0.56886901      -2.04411916       1.86745484       0.06589938       0.54904112       0.90018360       0.54901125