6
Properties=species:S:1:pos:R:3:REF_forces:R:3:S0_forces:R:3:S1_forces:R:3:S2_forces:R:3:forces:R:3 REF_energy=-2568.072172581907 split=train T=5000 traj_n=66 S0_energy=-2568.072172581907 S1_energy=-2565.4180050762757 S2_energy=-2564.9930335716545 energy=-2568.072172581907 pbc="F F F"
C       -2.44511610       0.00067850       0.22303030      -0.68686702       0.21612006      -5.63747094      -0.68686702       0.21612006      -5.63747094      -4.94764998      -1.54405540      -3.30348430       2.23048492       1.00786886      -5.61080552      -0.68686702       0.21612006      -5.63747094
N       -1.20298180       0.06402940      -0.02610510       3.14688421       2.19325246       2.52567576       3.14688421       2.19325246       2.52567576       4.18554759       3.64912817       1.90235372      -0.39809931      -1.69435305       6.72508253       3.14688421       2.19325246       2.52567576
H       -2.73115060      -0.18978810      -0.99313910      -2.30006833       0.52752053       3.07258462      -2.30006833       0.52752053       3.07258462      -1.33933083      -0.12533944       2.32343848      -2.12126486      -0.46932895       1.58427810      -2.30006833       0.52752053       3.07258462
H       -2.18051580       1.73738270       1.31731120      -0.93171350      -0.92091173      -0.20008630      -0.93171350      -0.92091173      -0.20008630       0.43786759      -0.42203767      -0.94372385      -0.55202155       0.31961931       0.23142609      -0.93171350      -0.92091173      -0.20008630
H       -0.76431970       0.21178010       0.99196600       1.19271690      -0.00302223      -2.99658630       1.19271690      -0.00302223      -2.99658630       1.31445144      -0.92943550      -1.80752746       0.96678603      -0.31786638      -1.65865297       1.19271690      -0.00302223      -2.99658630
H       -0.76037520       0.80235360      -1.45932420      -0.42100239      -2.01303113       3.23586187      -0.42100239      -2.01303113       3.23586187       0.34813855      -0.62839046       1.82911167      -0.12404401       1.15396585      -1.27104094      -0.42100239      -2.01303113       3.23586187
6
Properties=species:S:1:pos:R:3:REF_forces:R:3:S0_forces:R:3:S1_forces:R:3:S2_forces:R:3:forces:R:3 REF_energy=-2570.823603191952 split=train T=0 traj_n=49_old S0_energy=-2570.823603191952 S1_energy=-2569.7754137701404 S2_energy=-2567.6941143193512 energy=-2570.823603191952 pbc="F F F"
C       -2.88762680       0.35456960       0.22789170       2.70614737       1.33627404      -2.15085754       2.70614737       1.33627404      -2.15085754       0.83692114       1.86646656      -1.30656777      -1.90005983       1.89729975      -3.52395508       2.70614737       1.33627404      -2.15085754
N       -0.78983080       0.05877610       0.14133630      -2.75851247       2.03212214      -1.05078757      -2.75851247       2.03212214      -1.05078757      -3.78593545       2.45550660      -3.65564633       1.87310243       1.98925505      -1.82584082      -2.75851247       2.03212214      -1.05078757
H       -3.54854380       0.58482480       1.14642150       0.81763246      -0.69767193      -0.88682044       0.81763246      -0.69767193      -0.88682044       1.54367482      -0.85411791      -0.50806200       1.78541541      -0.76041467       0.03436892       0.81763246      -0.69767193      -0.88682044
H       -2.99381600       0.85646650      -0.86676970      -0.45950404      -0.97834422       2.41201140      -0.45950404      -0.97834422       2.41201140       0.44528291      -1.84629441       1.75978269       0.40546830      -1.30852407       2.14174025      -0.45950404      -0.97834422       2.41201140
H       -0.58999480      -0.53363920      -0.70654510      -0.33537380      -0.76922085       0.50000180      -0.33537380      -0.76922085       0.50000180       0.04431034      -1.32915882       1.12623526      -1.26661853      -1.91246730       0.87782230      -0.33537380      -0.76922085       0.50000180
H       -0.75312820       0.98173170      -0.46295190       0.02958718      -0.92320737       1.17646475       0.02958718      -0.92320737       1.17646475       0.91583812      -0.29234072       2.58442928      -0.89702551       0.09487382       2.29616201       0.02958718      -0.92320737       1.17646475
6
Properties=species:S:1:pos:R:3:REF_forces:R:3:S0_forces:R:3:S1_forces:R:3:S2_forces:R:3:forces:R:3 REF_energy=-2565.3204900213673 split=train T=5000 traj_n=54 S0_energy=-2565.3204900213673 S1_energy=-2563.43395581124 S2_energy=-2563.250288603536 energy=-2565.3204900213673 pbc="F F F"
C       -2.98095200       0.48936950       0.23196950       0.26327173      -2.49665752       0.58682236       0.26327173      -2.49665752       0.58682236       0.95655617      -3.76054714       1.17641374      -0.53327666      -2.27671958       0.75374121       0.26327173      -2.49665752       0.58682236
N       -0.91642600       0.22844070       0.02370570       0.61705226       0.14431968       1.87182274       0.61705226       0.14431968       1.87182274       0.62247456       0.62632654       0.10083019       1.51365009       0.18697819       1.25827453       0.61705226       0.14431968       1.87182274
H       -3.00955930       0.08330750       1.29938900       0.56721348       0.91601013      -0.58803047       0.56721348       0.91601013      -0.58803047       0.22939533       1.49529262      -0.24453723       0.54699941       0.93778521      -0.46971832       0.56721348       0.91601013      -0.58803047
H       -3.86663670      -0.05226400      -0.41666700       2.47127368       1.46211634       0.14880991       2.47127368       1.46211634       0.14880991       2.21230557       1.78487682      -0.00540986       2.50655827       1.31444723       0.17475759       2.47127368       1.46211634       0.14880991
H        1.46739680      -2.49663140      -0.76740820      -0.01386740       0.01740524       0.00645121      -0.01386740       0.01740524       0.00645121      -0.01399673       0.01628131       0.00643028      -0.01050080       0.01528218       0.00722907      -0.01386740       0.01740524       0.00645121
H        0.33419050       0.33586640       0.69954860      -3.90490343      -0.04333908      -2.02613774      -3.90490343      -0.04333908      -2.02613774      -4.00653591      -0.16270122      -1.03409006      -4.02311433      -0.17769589      -1.72436158      -3.90490343      -0.04333908      -2.02613774
6
Properties=species:S:1:pos:R:3:REF_forces:R:3:S0_forces:R:3:S1_forces:R:3:S2_forces:R:3:forces:R:3 state=0 data_path=dataset_x/meci/x_conic_grad_e_RIGHT-BASIS.json name=00755-closeToCI_S2S1-state1.dat REF_energy=-2574.9039687561385 S0_energy=-2574.9039687561385 S1_energy=-2570.048962906967 S2_energy=-2569.41331216402 energy=-2574.9039687561385 pbc="F F F"
C       -0.31220879      -0.06825735      -1.59199524       2.17818713       4.42727769       4.67940523       2.17818713       4.42727769       4.67940523       0.92036249       1.69081207      -4.62733226       1.24363678      -1.18196722       6.12186980       2.17818713       4.42727769       4.67940523
N       -0.26362896      -0.04826758      -0.08969881      -3.54123865       1.50485641      -7.36747388      -3.54123865       1.50485641      -7.36747388      -2.22161739      -1.07576090       2.73497350      -3.38176859      -0.14874815      -4.74292691      -3.54123865       1.50485641      -7.36747388
H       -1.15999944       0.39272259       0.29924469       0.78593683      -1.57892645      -0.21455636       0.78593683      -1.57892645      -0.21455636       1.09718653       0.30484364      -0.73861356       0.78335709      -1.06095443       0.08140869       0.78593683      -1.57892645      -0.21455636
H        0.54108107       0.34861323       0.35353355       1.81101414      -0.33725996       0.42044775       1.81101414      -0.33725996       0.42044775       1.41261165       0.54389753       0.58600721       1.47856533       1.16025482       0.32307816       1.81101414      -0.33725996       0.42044775
H       -1.12467083       0.36535923      -2.23688719      -1.29780772      -1.73817709       1.11552225      -1.29780772      -1.73817709       1.11552225      -0.82031340      -0.97039719       0.48995552      -0.47538817       1.23455472      -0.58024043      -1.29780772      -1.73817709       1.11552225
H        0.57497639       0.42277907      -2.18201690       0.06390981      -2.27807471       1.36666053       0.06390981      -2.27807471       1.36666053      -0.38839612      -0.49369365       1.55861355       0.35188028      -0.00307992      -1.20716470       0.06390981      -2.27807471       1.36666053
6
Properties=species:S:1:pos:R:3:REF_forces:R:3:S0_forces:R:3:S1_forces:R:3:S2_forces:R:3:forces:R:3 state=0 data_path=dataset_x/meci/x_conic_grad_e_RIGHT-BASIS.json name=00666-closeToCI_S1S0-state1.dat REF_energy=-2571.6234335746763 S0_energy=-2571.6234335746763 S1_energy=-2571.5962427265813 S2_energy=-2568.042675416817 energy=-2571.6234335746763 pbc="F F F"
C       -0.17784665      -0.16290942      -1.50264100      -3.19332173       4.10157366      -2.29419023      -3.19332173       4.10157366      -2.29419023       2.27611259      -2.93417025       1.38748831      -6.96409600       8.92159993      -2.67434611      -3.19332173       4.10157366      -2.29419023
N       -0.31502245       0.04700356      -0.18787611       0.84356898      -1.05780627       1.67009443       0.84356898      -1.05780627       1.67009443      -0.84289942       1.06339189      -1.23056354       2.88388348      -3.63571349       3.32125114       0.84356898      -1.05780627       1.67009443
H       -0.88754095       0.79604838       0.24944469       0.00269231      -0.01706107      -0.29937542       0.00269231      -0.01706107      -0.29937542       0.02317423      -0.01524901       0.27918763      -0.11622179       0.13572968      -0.51779960       0.00269231      -0.01706107      -0.29937542
H        0.18034378      -0.57561161       0.47641981      -0.07292780       0.09986479       0.02254436      -0.07292780       0.09986479       0.02254436       0.08504526      -0.11807098      -0.15714789      -0.32931355       0.43375187       0.36986453      -0.07292780       0.09986479       0.02254436
H       -1.18615549       0.18301641      -2.07174659      -0.65006985      -3.02090565       0.48532749      -0.65006985      -3.02090565       0.48532749       0.31180249       1.85975619      -0.15993024      -1.57429353      -5.90037896      -0.17719525      -0.65006985      -3.02090565       0.48532749
H       -0.27477303       0.88929857      -2.08923628       3.17238241      -0.13657727       0.40366755       3.17238241      -0.13657727       0.40366755      -1.95599536       0.17570144      -0.10737241       6.09916454       0.04588201      -0.32251802       3.17238241      -0.13657727       0.40366755
6
Properties=species:S:1:pos:R:3:REF_forces:R:3:S0_forces:R:3:S1_forces:R:3:S2_forces:R:3:forces:R:3 REF_energy=-2568.9419965309553 split=train T=0 traj_n=63_old S0_energy=-2568.9419965309553 S1_energy=-2567.699104493282 S2_energy=-2566.9055709077074 energy=-2568.9419965309553 pbc="F F F"
C       -3.93827640       0.59038390       0.40615650       1.31362725      -1.95611312      -2.90069027       1.31362725      -1.95611312      -2.90069027       0.82074638       0.64008610      -4.98816039       1.32749100      -1.77439026      -2.73589102       1.31362725      -1.95611312      -2.90069027
N        0.00012680      -0.11724730      -0.12093850       2.36947167       2.08258384       2.07710127       2.36947167       2.08258384       2.07710127       2.40176524       2.04694388       2.07967953       4.73022349       2.97962103       3.12841361       2.36947167       2.08258384       2.07710127
H       -3.64829460       0.36732240      -0.69831200      -0.20068058      -0.08285705       1.46479337      -0.20068058      -0.08285705       1.46479337       0.40715175      -1.87076231       1.61675484      -0.49409335       0.20810079       1.76829788      -0.20068058      -0.08285705       1.46479337
H       -4.33743400       1.46506870       0.82619730      -0.93948333       1.95520604       1.38501373      -0.93948333       1.95520604       1.38501373      -1.07626165       1.17071761       3.32654983      -0.79470871       1.56796265       0.95358259      -0.93948333       1.95520604       1.38501373
H        0.26499240       0.71658550       0.61682840      -1.15955969      -1.63977115      -1.54009235      -1.15955969      -1.63977115      -1.54009235      -1.17936897      -1.63637863      -1.55030246      -3.47373783      -0.73426835      -1.06743922      -1.15955969      -1.63977115      -1.54009235
H        1.05514750      -0.35830050      -0.18495340      -1.38336498      -0.35910667      -0.48612011      -1.38336498      -0.35910667      -0.48612011      -1.37400396      -0.35064713      -0.48450422      -1.29456401      -2.24683210      -2.04561261      -1.38336498      -0.35910667      -0.48612011
6
Properties=species:S:1:pos:R:3:REF_forces:R:3:S0_forces:R:3:S1_forces:R:3:S2_forces:R:3:forces:R:3 REF_energy=-2570.8702486818156 split=train T=0 traj_n=80_old S0_energy=-2570.8702486818156 S1_energy=-2565.3790098063637 S2_energy=-2564.4584288188353 energy=-2570.8702486818156 pbc="F F F"
C       -2.28133030       0.63968440      -0.27881110      -2.81560901       1.16439676      -1.17419704      -2.81560901       1.16439676      -1.17419704      -6.11035203       0.87456549      -1.09154074     -13.27161478       4.73354207      -4.57108757      -2.81560901       1.16439676      -1.17419704
N       -1.28001020       0.07364700       0.12720110       3.39420450       1.46380262       0.03112645       3.39420450       1.46380262       0.03112645       5.48280715       2.62351154      -1.25140681      11.78706402      -0.42433706       2.95403140       3.39420450       1.46380262       0.03112645
H       -3.73827190      -0.87965110       2.95150220       3.15533121      -1.83376167      -2.24346786       3.15533121      -1.83376167      -2.24346786       3.13590534      -1.82395676      -2.23023814       3.10720998      -1.78159341      -2.21340673       3.15533121      -1.83376167      -2.24346786
H       -2.82473900      -1.42928350       2.30731230      -3.12575560       1.80866893       2.21987737      -3.12575560       1.80866893       2.21987737      -3.09290189       1.81081889       2.18859511      -3.02484304       1.81671268       2.15007001      -3.12575560       1.80866893       2.21987737
H       -0.52925060       0.92991880      -0.23330560      -1.17020026      -2.42107572       1.09409390      -1.17020026      -2.42107572       1.09409390       0.43862704      -3.03814289       1.69262393       0.80998636      -3.09922290       1.31851266      -1.17020026      -2.42107572       1.09409390
H       -1.16240550      -0.61201430       0.89170730       0.56204438      -0.18210107       0.07252928       0.56204438      -0.18210107       0.07252928       0.14489741      -0.44827300       0.69182113       0.59133192      -1.24521682       0.36168256       0.56204438      -0.18210107       0.07252928
6
Properties=species:S:1:pos:R:3:REF_forces:R:3:S0_forces:R:3:S1_forces:R:3:S2_forces:R:3:forces:R:3 state=0 data_path=dataset_x/meci/x_conic_grad_e_RIGHT-BASIS.json name=00954-closeToCI_S2S0-state1.dat REF_energy=-2574.031489315821 S0_energy=-2574.031489315821 S1_energy=-2573.8428254499845 S2_energy=-2568.4500235942483 energy=-2574.031489315821 pbc="F F F"
C       -0.28116522       0.01405092      -1.55626912       0.18832946       0.11319555       1.25333344       0.18832946       0.11319555       1.25333344       0.04708374       0.08463897       2.43582912       0.22554978       0.16727485       6.88471200       0.18832946       0.11319555       1.25333344
N       -0.29140129      -0.00469786      -0.14549117      -0.12612445       0.02928476      -1.58692135      -0.12612445       0.02928476      -1.58692135       0.26732955       0.05752047      -1.91557253      -0.44197195      -0.44107931      -5.36649141      -0.12612445       0.02928476      -1.58692135
H       -0.95505810       0.56844366       0.38201756      -1.57042602      -0.97361483       0.26425440      -1.57042602      -0.97361483       0.26425440       0.98015139       1.47414026       0.32626093      -0.45521755       0.77670199       0.92688548      -1.57042602      -0.97361483       0.26425440
H        0.26195536      -0.69227795       0.37387450       1.65666839       0.88257709       0.48635377       1.65666839       0.88257709       0.48635377      -1.23285712      -1.47871857       0.06354888       0.70238322      -0.50445963       0.90528230       1.65666839       0.88257709       0.48635377
H       -0.98100133      -0.62109674      -2.11000882      -1.51672467       0.89929965      -0.22092612      -1.51672467       0.89929965      -0.22092612       0.74318406      -1.62668372      -0.50445742      -0.93416628      -0.87540464      -1.68317548      -1.51672467       0.89929965      -0.22092612
H        0.43478408       0.67208271      -2.06675291       1.36846745      -0.95044101      -0.19555339       1.36846745      -0.95044101      -0.19555339      -0.80503298       1.48889181      -0.40553962       0.90341080       0.87691280      -1.66764314       1.36846745      -0.95044101      -0.19555339
6
Properties=species:S:1:pos:R:3:REF_forces:R:3:S0_forces:R:3:S1_forces:R:3:S2_forces:R:3:forces:R:3 REF_energy=-2569.489904594559 split=train T=0 traj_n=80_old S0_energy=-2569.489904594559 S1_energy=-2568.3262442259593 S2_energy=-2566.884937731558 energy=-2569.489904594559 pbc="F F F"
C       -2.69949920       0.47145850       0.08424320       1.16717782      -4.83333204       4.68140488       1.16717782      -4.83333204       4.68140488       1.95793274       0.69371762       0.13085980      -1.00423281      -5.89062697       5.22836299       1.16717782      -4.83333204       4.68140488
N       -0.94361020       0.13750810       0.09912950      -5.81957263      -2.21804330      -3.44755156      -5.81957263      -2.21804330      -3.44755156      -3.88579890      -2.90191385      -2.73128705       0.34143111       1.34078551      -5.04905821      -5.81957263      -2.21804330      -3.44755156
H       -3.38278360       0.22282990       1.26484740       3.02202295       2.96950965      -0.69071967       3.02202295       2.96950965      -0.69071967       0.83628464      -0.10424050      -1.13028753       2.52259352       2.68194907      -1.01504579       3.02202295       2.96950965      -0.69071967
H       -3.51373970      -0.47099880       0.19047210       2.01744258       1.03544842      -3.80376286       2.01744258       1.03544842      -3.80376286       1.27359672      -0.14114329       0.69400101       0.63011485       1.28040129      -3.39930434       2.01744258       1.03544842      -3.80376286
H       -0.67539530      -0.42203950      -0.86816850      -0.55505015       2.14658771       2.52274681      -0.55505015       2.14658771       2.52274681      -0.47104691       2.13592354       2.46371130      -1.43692210       1.12904563       3.07707649      -0.55505015       2.14658771       2.52274681
H       -0.34027650      -0.03910150       0.90552970       0.16795321       0.89976893       0.73770905       0.16795321       0.89976893       0.73770905       0.28900703       0.31737597       0.57338109      -1.05283438      -0.54172633       1.15723058       0.16795321       0.89976893       0.73770905
6
Properties=species:S:1:pos:R:3:REF_forces:R:3:S0_forces:R:3:S1_forces:R:3:S2_forces:R:3:forces:R:3 state=0 data_path=dataset_x/meci/x_conic_grad_e_RIGHT-BASIS.json name=00928-closeToCI_S1S0-state1.dat REF_energy=-2571.649795456386 S0_energy=-2571.649795456386 S1_energy=-2571.5725817868024 S2_energy=-2568.0654142676235 energy=-2571.649795456386 pbc="F F F"
C       -0.18211351      -0.16484163      -1.50299122      -3.04756922       1.87405543      -1.39215944      -3.04756922       1.87405543      -1.39215944       2.33780030      -0.62853265       0.54730388      -6.87048444       8.97238817      -2.63246916      -3.04756922       1.87405543      -1.39215944
N       -0.31323703       0.04797899      -0.18756731       0.97484181      -0.21082832       0.96565448       0.97484181      -0.21082832       0.96565448      -1.07233357       0.21664132      -0.60288363       2.86996404      -3.62678405       3.28186431       0.97484181      -0.21082832       0.96565448
H       -0.88549013       0.79763686       0.24933457       0.64916693       0.47096751      -0.18974311       0.64916693       0.47096751      -0.18974311      -0.60081687      -0.50065455       0.17658214      -0.15209609       0.10249760      -0.52085674       0.64916693       0.47096751      -0.18974311
H        0.17902293      -0.57659635       0.47646563      -0.45140065      -0.28284091       0.00068386      -0.45140065      -0.28284091       0.00068386       0.49767752       0.25058405      -0.11598643      -0.30644050       0.43692194       0.37660931      -0.45140065      -0.28284091       0.00068386
H       -1.18222688       0.17847748      -2.07436145       0.58072498      -3.11631698      -0.52820264       0.58072498      -3.11631698      -0.52820264      -1.09109435       2.00609013       0.78870771      -1.61392780      -5.90801812      -0.17812326       0.58072498      -3.11631698      -0.52820264
H       -0.27691928       0.89420835      -2.08651819       1.29758912       1.22706843       1.14887820       1.29758912       1.22706843       1.14887820      -0.07479478      -1.30640667      -0.79873938       6.07289655       0.02217649      -0.32613639       1.29758912       1.22706843       1.14887820
6
Properties=species:S:1:pos:R:3:REF_forces:R:3:S0_forces:R:3:S1_forces:R:3:S2_forces:R:3:forces:R:3 REF_energy=-2569.6824247274626 split=train T=5000 traj_n=24 S0_energy=-2569.6824247274626 S1_energy=-2567.562196075435 S2_energy=-2565.5654642873046 energy=-2569.6824247274626 pbc="F F F"
C       -2.36619350       0.32539300       0.16912480      -3.17656451       0.10736866       0.53081601      -3.17656451       0.10736866       0.53081601     -12.72569251      -1.45800643      -3.70794149     -13.34643286       2.68390661       2.94742886      -3.17656451       0.10736866       0.53081601
N       -1.19417990       0.23502150       0.17834420       0.64130470       0.16139854      -0.23781791       0.64130470       0.16139854      -0.23781791       8.62469174      -2.62800707      -0.11292286      12.97841222     -10.32813899      -1.02410070       0.64130470       0.16139854      -0.23781791
H       -3.20194750       0.20387380       0.88529990      -0.40043886      -0.06210680      -0.58310233      -0.40043886      -0.06210680      -0.58310233       0.27835423       0.62673195       0.80303806      -0.87172781      -0.96283059      -1.71248478      -0.40043886      -0.06210680      -0.58310233
H       -3.27413850       0.32923150      -1.32454800       0.67848744       0.05866070       0.81283062       0.67848744       0.05866070       0.81283062       1.47445717      -0.04372264       2.20377625      -0.25962112       0.18804063      -0.56205214       0.67848744       0.05866070       0.81283062
H       -1.57524840      -1.65373110      -0.41161080       0.15487926      -0.94061723      -0.25389728       0.15487926      -0.94061723      -0.25389728       0.33247945       3.20136913       0.67393946       0.28792352       4.51711065       1.54850983       0.15487926      -0.94061723      -0.25389728
H       -0.39511210       0.81420870       0.23340940       2.10789769       0.59281719      -0.26285115       2.10789769       0.59281719      -0.26285115       2.01973132       0.24308054       0.14448583       1.28915276       2.75704899      -1.09094852       2.10789769       0.59281719      -0.26285115
6
Properties=species:S:1:pos:R:3:REF_forces:R:3:S0_forces:R:3:S1_forces:R:3:S2_forces:R:3:forces:R:3 REF_energy=-2559.7316078321796 split=train T=5000 traj_n=96 S0_energy=-2559.7316078321796 S1_energy=-2559.719445620446 S2_energy=-2559.71714472551 energy=-2559.7316078321796 pbc="F F F"
C       -4.48176870       0.47768450       0.24605570      -0.01474790       0.02424453       0.06020645      -0.01474790       0.02424453       0.06020645      -0.01214085       0.02336871       0.05799453      -0.01438440       0.02020172       0.05395440      -0.01474790       0.02424453       0.06020645
N        0.66240710       0.05235710      -0.10420460      -3.26289517      -0.84759801      -1.72006892      -3.26289517      -0.84759801      -1.72006892      -3.26760553      -0.84850180      -1.72483307      -3.26634240      -0.84859636      -1.72461576      -3.26289517      -0.84759801      -1.72006892
H       -3.40391600       3.52332810       2.44757280      -0.01183818      -0.03532074      -0.02478862      -0.01183818      -0.03532074      -0.02478862      -0.01074588      -0.03372372      -0.02430346      -0.00908494      -0.02888820      -0.02080989      -0.01183818      -0.03532074      -0.02478862
H       -3.75349640      -3.09699430       1.42930930      -0.00795258       0.04307560      -0.01393739      -0.00795258       0.04307560      -0.01393739      -0.00803017       0.03994348      -0.01288205      -0.00749744       0.03859458      -0.01256282      -0.00795258       0.04307560      -0.01393739
H       -0.24905060       0.11508850      -0.77153120       1.68043844       2.10423480       0.09547746       1.68043844       2.10423480       0.09547746       1.68738952       2.10215405       0.10394642       1.68604463       2.10177070       0.10391304       1.68043844       2.10423480       0.09547746
H        0.12292470      -0.86129340      -0.06116010       1.61694530      -1.28866935       1.60308808       1.61694530      -1.28866935       1.60308808       1.61147394      -1.28328669       1.60008848       1.61162127      -1.28311525       1.60011512       1.61694530      -1.28866935       1.60308808
6
Properties=species:S:1:pos:R:3:REF_forces:R:3:S0_forces:R:3:S1_forces:R:3:S2_forces:R:3:forces:R:3 REF_energy=-2566.6053315045315 split=train T=5000 traj_n=61 S0_energy=-2566.6053315045315 S1_energy=-2564.3864873955667 S2_energy=-2562.649824411059 energy=-2566.6053315045315 pbc="F F F"
C       -2.56652970       0.33978420       0.19608290      -3.24950646      10.10837918      -4.79883421      -3.24950646      10.10837918      -4.79883421      -8.28771245      10.17441030      -2.41579128     -11.59920888       9.64070339      -1.90979166      -3.24950646      10.10837918      -4.79883421
N       -1.57843140      -0.21115290      -0.04432640       6.36123278      -3.05735978      -1.10334015       6.36123278      -3.05735978      -1.10334015      13.16519105      -5.43347333      -1.61916062      16.38176178      -5.65258122      -4.86841593       6.36123278      -3.05735978      -1.10334015
H       -2.89578110      -0.45473420       0.67257210      -3.38111178      -5.86528782       4.24908341      -3.38111178      -5.86528782       4.24908341      -5.05219901      -4.38367131       4.11675685      -5.44869447      -3.65688246       4.92810214      -3.38111178      -5.86528782       4.24908341
H       -3.07367730       1.18456090      -0.46554380       0.21572899      -1.08641417       1.58551593       0.21572899      -1.08641417       1.58551593       0.56166586      -0.99285511       1.48790116       0.73251598      -0.42598128       1.73307268       0.21572899      -1.08641417       1.58551593
H       -0.81451730      -1.02940380       2.00970190       0.05843511      -0.09925652       0.06715167       0.05843511      -0.09925652       0.06715167      -0.29658870       0.63567178      -1.56954891      -0.05066328       0.09492539       0.11693867       0.05843511      -0.09925652       0.06715167
H        6.65288960       6.63441170       0.09173880      -0.00010968      -0.00007718       0.00000026      -0.00010968      -0.00007718       0.00000026       0.00010506       0.00007019       0.00000437      -0.00006731      -0.00004947      -0.00000098      -0.00010968      -0.00007718       0.00000026
6
Properties=species:S:1:pos:R:3:REF_forces:R:3:S0_forces:R:3:S1_forces:R:3:S2_forces:R:3:forces:R:3 REF_energy=-2571.1070087375942 split=train T=5000 traj_n=82 S0_energy=-2571.1070087375942 S1_energy=-2568.252931754203 S2_energy=-2567.0525771487796 energy=-2571.1070087375942 pbc="F F F"
C       -2.31455250       0.12821080      -0.27542300       0.87328693      -0.25338429       0.48719585       0.87328693      -0.25338429       0.48719585      -5.23243146       0.52307627      -0.04165594      -1.86543231       0.00846042       3.05525271       0.87328693      -0.25338429       0.48719585
N       -1.34471910      -0.08798530       0.56961630      -1.61382393       0.64856123      -1.77972453      -1.61382393       0.64856123      -1.77972453       7.20027236      -0.53705978       0.09545771       3.87669349      -0.43345774      -2.05202227      -1.61382393       0.64856123      -1.77972453
H       -3.16786690       0.17835820       0.58172450       0.17965713       0.20620737      -2.41129874       0.17965713       0.20620737      -2.41129874      -0.76548756       0.41793758      -3.67671302      -0.79681182       0.99113576      -3.50581559       0.17965713       0.20620737      -2.41129874
H       -2.26537550       0.20246250      -1.54730460      -0.33180593      -0.24863372       3.73763064      -0.33180593      -0.24863372       3.73763064       0.09522189      -0.18952873       3.52743718      -0.13057868      -0.72524866       2.98420196      -0.33180593      -0.24863372       3.73763064
H       -0.28521190      -1.37592550      -1.74965240       0.11442418      -0.04296741       0.01595159       0.11442418      -0.04296741       0.01595159      -0.29504357       0.04628459       0.32949667      -0.04094467       0.40157390       0.13382089       0.11442418      -0.04296741       0.01595159