6
Properties=species:S:1:pos:R:3:REF_forces:R:3:forces:R:3 state=2 split=T T=T traj_n=136 frame_id=10 type=scan REF_energy=-2561.368508207064 energy=-2561.368508207064 pbc="F F F"
C       -0.43815860       0.57247476      -0.26928087       0.50887449      -4.40194842       6.62481913       0.50887449      -4.40194842       6.62481913
N       -0.20309405       0.15149664      -1.78300966      -0.74587376       2.31972163      -2.60765166      -0.74587376       2.31972163      -2.60765166
H       -0.28751149       0.67555102       0.89881218      -0.19325250       2.42269841      -1.71771586      -0.19325250       2.42269841      -1.71771586
H       -0.45089238      -0.68379415       0.45809990      -0.37371802       1.23201564      -2.28440983      -0.37371802       1.23201564      -2.28440983
H       -0.85493766      -0.57371239      -2.12284142      -0.02071239      -0.69571919       0.32402499      -0.02071239      -0.69571919       0.32402499
H       -0.45117376       1.06797921      -2.26174553       0.82468218      -0.87676807      -0.33906676       0.82468218      -0.87676807      -0.33906676
6
Properties=species:S:1:pos:R:3:REF_forces:R:3:forces:R:3 state=2 split=T T=T traj_n=136 frame_id=11 type=scan REF_energy=-2561.6131485512806 energy=-2561.6131485512806 pbc="F F F"
C       -0.34897729       0.56098182      -0.27222699       2.65459616      -4.51596822       6.19427401       2.65459616      -4.51596822       6.19427401
N       -0.20350845       0.09455504      -1.81495511      -1.79392949       2.57470630      -1.27124494      -1.79392949       2.57470630      -1.27124494
H       -0.37027755       0.72881732       0.89429337      -1.57391736       2.44944571      -1.71919402      -1.57391736       2.44944571      -1.71919402
H       -0.38589384      -0.70101094       0.49900770       0.22208767       1.23426085      -2.36529106       0.22208767       1.23426085      -2.36529106
H       -0.97916298      -0.51352609      -2.11949802      -0.21409362      -0.85712925      -0.19218221      -0.21409362      -0.85712925      -0.19218221
H       -0.39794785       1.04017795      -2.26658636       0.70525663      -0.88531539      -0.64636177       0.70525663      -0.88531539      -0.64636177
6
Properties=species:S:1:pos:R:3:REF_forces:R:3:forces:R:3 state=2 split=T T=T traj_n=136 frame_id=13 type=scan REF_energy=-2562.10641100836 energy=-2562.10641100836 pbc="F F F"
C       -0.26130047       0.51399237      -0.26842307       3.09549415      -4.57433333       4.62315070       3.09549415      -4.57433333       4.62315070
N       -0.21370648       0.01215691      -1.87277586      -2.12899955       3.53616685       1.13397317      -2.12899955       3.53616685       1.13397317
H       -0.51022609       0.81493524       0.83638653      -1.52886070       2.15483520      -2.10134796      -1.52886070       2.15483520      -2.10134796
H       -0.23087592      -0.74996034       0.60686560       0.17126331       1.11393857      -2.34994214       0.17126331       1.11393857      -2.34994214
H       -1.12852015      -0.38608199      -2.12763857      -0.25639028      -1.39273958      -0.58098058      -0.25639028      -1.39273958      -0.58098058
H       -0.34113884       1.00495290      -2.25438004       0.64749307      -0.83786770      -0.72485320       0.64749307      -0.83786770      -0.72485320
6
Properties=species:S:1:pos:R:3:REF_forces:R:3:forces:R:3 state=2 split=T T=T traj_n=136 frame_id=15 type=scan REF_energy=-2562.440277457418 energy=-2562.440277457418 pbc="F F F"
C       -0.16434255       0.43766521      -0.25405821       2.55664329      -4.48718156       4.28900005       2.55664329      -4.48718156       4.28900005
N       -0.19674245       0.01659757      -1.95284310      -2.46568027       3.74820533       2.66141572      -2.46568027       3.74820533       2.66141572
H       -0.53543378       0.90580685       0.74624550      -1.00513260       1.60563569      -2.37512859      -1.00513260       1.60563569      -2.37512859
H       -0.19917335      -0.84844333       0.70052468       0.22953183       1.50244831      -2.60353704       0.22953183       1.50244831      -2.60353704
H       -1.14416285      -0.33935225      -2.13315268      -0.32045603      -1.75742652      -0.88936570      -0.32045603      -1.75742652      -0.88936570
H       -0.44591296       1.03772105      -2.18668160       1.00509379      -0.61168124      -1.08238444       1.00509379      -0.61168124      -1.08238444
6
Properties=species:S:1:pos:R:3:REF_forces:R:3:forces:R:3 state=2 split=T T=T traj_n=136 frame_id=5 type=scan REF_energy=-2562.294274621484 energy=-2562.294274621484 pbc="F F F"
C       -0.69323426       0.57942614      -0.22934966       2.94826187      -6.76670677       1.24064484       2.94826187      -6.76670677       1.24064484
N       -0.39582597       0.33514344      -1.63303811      -0.61474427       4.59955356       0.57641441      -0.61474427       4.59955356       0.57641441
H        0.10693679       0.40778627       0.65122213       1.95016292       2.93272735      -1.71303960       1.95016292       2.93272735      -1.71303960
H       -0.61289614      -0.60550661       0.36300412      -4.78092881       0.79862835      -0.10130983      -4.78092881       0.79862835      -0.10130983
H       -0.29156766      -0.62136635      -2.02073509       1.04044240      -0.00787426       0.33083802       1.04044240      -0.00787426       0.33083802
H       -0.79918070       1.11451220      -2.21106880      -0.54319412      -1.55632822      -0.33354784      -0.54319412      -1.55632822      -0.33354784
6
Properties=species:S:1:pos:R:3:REF_forces:R:3:forces:R:3 state=2 split=T T=T traj_n=136 frame_id=7 type=scan REF_energy=-2561.7256045347294 energy=-2561.7256045347294 pbc="F F F"
C       -0.62016970       0.59138992      -0.24807691       1.74137915      -6.03657101       6.37568718       1.74137915      -6.03657101       6.37568718
N       -0.28828059       0.29662097      -1.68709646      -0.87385843       2.66569374      -3.36471364      -0.87385843       2.66569374      -3.36471364
H       -0.01641808       0.49264594       0.77728409       0.84828068       3.50097923      -1.25730861       0.84828068       3.50097923      -1.25730861
H       -0.60617084      -0.63233487       0.37694033      -2.86797115       1.20316511      -2.13805176      -2.86797115       1.20316511      -2.13805176
H       -0.47663491      -0.64902823      -2.06426998       0.70468815      -0.25217237       0.46621677       0.70468815      -0.25217237       0.46621677
H       -0.67809383       1.11070136      -2.23474648       0.44748160      -1.08109470      -0.08182994       0.44748160      -1.08109470      -0.08182994
6
Properties=species:S:1:pos:R:3:REF_forces:R:3:forces:R:3 state=2 split=T T=T traj_n=136 frame_id=8 type=scan REF_energy=-2561.5963865796707 energy=-2561.5963865796707 pbc="F F F"
C       -0.55974248       0.59564237      -0.25710016       0.41754063      -5.09975776       6.55773621       0.41754063      -5.09975776       6.55773621
N       -0.24599228       0.25606060      -1.71808805      -0.82877692       2.16059307      -3.50493345      -0.82877692       2.16059307      -3.50493345
H       -0.09400004       0.54713326       0.83686414       0.78465631       2.92743554      -1.30272714       0.78465631       2.92743554      -1.30272714
H       -0.58264320      -0.64393050       0.39142317      -1.73619349       1.31094974      -2.28691902      -1.73619349       1.31094974      -2.28691902
H       -0.59871398      -0.64415860      -2.08573364       0.58196288      -0.41243956       0.54111018       0.58196288      -0.41243956       0.54111018
H       -0.60467596       1.09924797      -2.24733086       0.78081060      -0.88678102      -0.00426677       0.78081060      -0.88678102      -0.00426677
6
Properties=species:S:1:pos:R:3:REF_forces:R:3:forces:R:3 state=2 split=T T=T traj_n=136 frame_id=9 type=scan REF_energy=-2561.4260396786017 energy=-2561.4260396786017 pbc="F F F"
C       -0.49731954       0.58937210      -0.26468119      -0.33304187      -4.53425379       6.62370009      -0.33304187      -4.53425379       6.62370009
N       -0.21771845       0.20434788      -1.75038668      -0.56947394       2.18265477      -3.29560412      -0.56947394       2.18265477      -3.29560412
H       -0.18939206       0.61234642       0.88045260       0.70722976       2.51202449      -1.53151259       0.70722976       2.51202449      -1.53151259
H       -0.52723700      -0.66152877       0.41745315      -1.03741787       1.31147310      -2.26773040      -1.03741787       1.31147310      -2.26773040
H       -0.73078105      -0.61933196      -2.10591166       0.37171273      -0.61528459       0.54923518       0.37171273      -0.61528459       0.54923518
H       -0.52331986       1.08478943      -2.25689162       0.86099119      -0.85661398      -0.07808816       0.86099119      -0.85661398      -0.07808816
6
Properties=species:S:1:pos:R:3:REF_forces:R:3:forces:R:3 state=2 split=T T=T traj_n=1610 frame_id=14 type=scan REF_energy=-2560.2504804984446 energy=-2560.2504804984446 pbc="F F F"
C       -0.69179943      -0.32230885      -0.03893240       2.44269749       3.75712593       2.10547927       2.44269749       3.75712593       2.10547927
N       -1.06749128       0.80356828      -1.41273895       2.04801525       0.31347084       1.03962804       2.04801525       0.31347084       1.03962804
H       -0.54905118       0.51633188       0.91970931      -1.76929393      -2.28839406      -1.79373326      -1.76929393      -2.28839406      -1.79373326
H        0.34037050      -0.76443141      -0.08408971      -0.81540663      -1.43204318      -0.44762341      -0.81540663      -1.43204318      -0.44762341
H        0.21656456       0.33043856      -2.02025749      -1.29535749       1.37545350       0.39233308      -1.29535749       1.37545350       0.39233308
H       -0.93436112       0.64639663      -2.44365616      -0.61065470      -1.72561303      -1.29608372      -0.61065470      -1.72561303      -1.29608372
6
Properties=species:S:1:pos:R:3:REF_forces:R:3:forces:R:3 state=2 split=T T=T traj_n=2312 frame_id=11 type=scan REF_energy=-2558.744399162177 energy=-2558.744399162177 pbc="F F F"
C       -0.34883578      -0.33085854      -0.43414650       3.46496482      -8.72481441      23.19941173       3.46496482      -8.72481441      23.19941173
N       -0.66051830       0.33022029      -1.36101460      -2.35944952      11.94614571     -25.50846111      -2.35944952      11.94614571     -25.50846111
H       -1.02253215       0.03125884       0.45106625      -0.75324070      -2.39591413      -0.01506688      -0.75324070      -2.39591413      -0.01506688
H        0.56441991      -0.01565865       0.27719586       0.72135858      -0.70223909      -0.70597344       0.72135858      -0.70223909      -0.70597344
H       -1.46092519       0.83395425      -2.00690791       0.91735830      -0.53371085       3.16269366       0.91735830      -0.53371085       3.16269366
H        0.24262356       0.36107891      -2.00615850      -1.99099147       0.41053277      -0.13260395      -1.99099147       0.41053277      -0.13260395
6
Properties=species:S:1:pos:R:3:REF_forces:R:3:forces:R:3 state=2 split=T T=T traj_n=2312 frame_id=13 type=scan REF_energy=-2557.8416019848246 energy=-2557.8416019848246 pbc="F F F"
C       -0.39554859      -0.24643217      -0.36966907       4.49550735     -10.74530802      27.65574156       4.49550735     -10.74530802      27.65574156
N       -0.69492280       0.32445871      -1.32683506      -2.18162868      13.47787778     -31.03809906      -2.18162868      13.47787778     -31.03809906
H       -1.06374719       0.19290362       0.47175430      -0.33878925      -2.08149067       1.13433871      -0.33878925      -2.08149067       1.13433871
H        0.65689724      -0.13359896       0.18505289      -0.61424433      -0.21152012      -0.97810505      -0.61424433      -0.21152012      -0.97810505
H       -1.44397686       0.74899297      -2.11309279       0.86061529      -0.75285138       3.63823043       0.86061529      -0.75285138       3.63823043
H        0.25553025       0.32367092      -1.92717569      -2.22146038       0.31329241      -0.41210659      -2.22146038       0.31329241      -0.41210659
6
Properties=species:S:1:pos:R:3:REF_forces:R:3:forces:R:3 state=2 split=T T=T traj_n=2312 frame_id=15 type=scan REF_energy=-2559.453815577072 energy=-2559.453815577072 pbc="F F F"
C       -0.38941109      -0.08506631      -0.28481694       7.06506985      -4.18737560      12.43984726       7.06506985      -4.18737560      12.43984726
N       -0.72239890       0.30937377      -1.28846060      -0.86990968       1.14347014      -8.94878213      -0.86990968       1.14347014      -8.94878213
H       -1.11446971       0.38855380       0.47535359      -0.43688922       0.32539626       1.68997337      -0.43688922       0.32539626       1.68997337
H        0.72629003      -0.30183750       0.07138404      -1.15935116      -0.67201316       0.92122322      -1.15935116      -0.67201316       0.92122322
H       -1.43512620       0.64967297      -2.17512123      -3.88899515       2.48906879      -5.77403136      -3.88899515       2.48906879      -5.77403136
H        0.24934792       0.24929836      -1.87830426      -0.70992464       0.90145357      -0.32823037      -0.70992464       0.90145357      -0.32823037
6
Properties=species:S:1:pos:R:3:REF_forces:R:3:forces:R:3 state=2 split=T T=T traj_n=2312 frame_id=4 type=scan REF_energy=-2562.1965206886744 energy=-2562.1965206886744 pbc="F F F"
C       -0.14288323      -0.43000984      -0.53939867      -2.28433557       1.02497992       6.72382449      -2.28433557       1.02497992       6.72382449
N       -0.57061507       0.34180494      -1.46726887       0.67056717       2.34629821      -7.24552910       0.67056717       2.34629821      -7.24552910
H       -0.91656365      -0.31937433       0.37611905      -0.37387730      -4.61267987       0.22606650      -0.37387730      -4.61267987       0.22606650
H        0.24329436       0.19318740       0.42906172       1.65279360       1.44919416      -0.40475638       1.65279360       1.44919416      -0.40475638
H       -1.39380252       1.02944388      -1.58221796       1.61224758       0.18137466       1.16572700       1.61224758       0.18137466       1.16572700
H        0.09480216       0.39494304      -2.29626069      -1.27739548      -0.38916707      -0.46533251      -1.27739548      -0.38916707      -0.46533251
6
Properties=species:S:1:pos:R:3:REF_forces:R:3:forces:R:3 state=2 split=T T=T traj_n=2312 frame_id=6 type=scan REF_energy=-2560.941417037949 energy=-2560.941417037949 pbc="F F F"
C       -0.21628586      -0.42478182      -0.51740454       0.02608619      -5.11489971       4.81860218       0.02608619      -5.11489971       4.81860218
N       -0.59489616       0.32655694      -1.44256488      -0.72204774       5.48628307      -8.74903908      -0.72204774       5.48628307      -8.74903908
H       -0.94230724      -0.20189656       0.40460160       0.91570747      -2.94167720       1.49627298       0.91570747      -2.94167720       1.49627298
H        0.34550739       0.14336301       0.39185689      -0.73336775       3.08232858       1.80211434      -0.73336775       3.08232858       1.80211434
H       -1.46262682       0.92802293      -1.73918081       1.83970208       0.60468009       1.63475605       1.83970208       0.60468009       1.63475605
H        0.18484073       0.43873059      -2.17727367      -1.32608024      -1.11671484      -1.00270646      -1.32608024      -1.11671484      -1.00270646
6
Properties=species:S:1:pos:R:3:REF_forces:R:3:forces:R:3 state=2 split=T T=T traj_n=2312 frame_id=9 type=scan REF_energy=-2559.406276869353 energy=-2559.406276869353 pbc="F F F"
C       -0.29907830      -0.38131947      -0.47432287       2.58015429      -6.91988872      19.14310368       2.58015429      -6.91988872      19.14310368
N       -0.63414516       0.32223873      -1.39691265      -2.70707050      10.19680649     -21.17922787      -2.70707050      10.19680649     -21.17922787
H       -0.98443781      -0.06736059       0.43247548      -0.79872447      -2.15213235      -0.52995089      -0.79872447      -2.15213235      -0.52995089
H        0.47668891       0.06145281       0.33255556       1.62926301      -0.87482567      -0.23451150       1.62926301      -0.87482567      -0.23451150
H       -1.47586598       0.86630689      -1.90841791       0.96692295      -0.70622594       2.57971102       0.96692295      -0.70622594       2.57971102
H        0.23107039       0.40867673      -2.06534302      -1.67054529       0.45626619       0.22087556      -1.67054529       0.45626619       0.22087556
6
Properties=species:S:1:pos:R:3:REF_forces:R:3:forces:R:3 state=2 split=T T=T traj_n=2611 frame_id=11 type=scan REF_energy=-2562.162342208218 energy=-2562.162342208218 pbc="F F F"
C       -0.64325923      -0.38803107      -0.47131522      -4.41649100      -4.78229766      -6.74239661      -4.41649100      -4.78229766      -6.74239661
N       -0.44147651       0.43362899      -1.73265815       0.37356831       1.56227522       8.10162484       0.37356831       1.56227522       8.10162484
H       -1.12676488       0.00736949       0.61733155       0.83362863       2.03368524      -0.80786978       0.83362863       2.03368524      -0.80786978
H        0.12013123      -0.16614747       0.18777868       3.52084793       0.53619063       3.83875493       3.52084793       0.53619063       3.83875493
H        0.08388793       1.08755045      -0.96226765      -0.90024901       0.96833779      -4.24292063      -0.90024901       0.96833779      -4.24292063
H       -0.67828648       0.23562471      -2.71883463       0.58869514      -0.31819123      -0.14719274       0.58869514      -0.31819123      -0.14719274
6
Properties=species:S:1:pos:R:3:REF_forces:R:3:forces:R:3 state=2 split=T T=T traj_n=2611 frame_id=13 type=scan REF_energy=-2561.0771614752352 energy=-2561.0771614752352 pbc="F F F"
C       -0.78257938      -0.25651523      -0.41689063      -7.32110578      -3.16304747      -6.68010285      -7.32110578      -3.16304747      -6.68010285
N       -0.40312837       0.38469321      -1.78249448       1.33295245       2.06420422       8.17793699       1.33295245       2.06420422       8.17793699
H       -1.07265140       0.20691118       0.71959391       1.13701092       1.61791513      -1.08411856       1.13701092       1.61791513      -1.08411856
H        0.05348050      -0.31009292       0.13551822       5.15271616      -0.82006696       4.22756373       5.15271616      -0.82006696       4.22756373
H        0.31205058       0.84877003      -0.99838996      -0.53348548       0.93046268      -4.44327299      -0.53348548       0.93046268      -4.44327299
H       -0.79293988       0.33622882      -2.73730246       0.23191174      -0.62946761      -0.19800632       0.23191174      -0.62946761      -0.19800632
6
Properties=species:S:1:pos:R:3:REF_forces:R:3:forces:R:3 state=2 split=T T=T traj_n=2810 frame_id=10 type=scan REF_energy=-2562.7124149507504 energy=-2562.7124149507504 pbc="F F F"
C       -0.78196226      -0.06637443      -0.07361710       2.27727448       1.63793694       4.71807220       2.27727448       1.63793694       4.71807220
N       -0.30870863       0.26218331      -1.42058694       2.62214255       1.39806374      -6.97964946       2.62214255       1.39806374      -6.97964946
H       -0.55394613       1.04461308       0.36261448      -1.91849194      -1.90264869       0.23463675      -1.91849194      -1.90264869       0.23463675
H        0.06425878      -0.85196704       0.04050703      -1.54954703      -1.63195894       0.86004572      -1.54954703      -1.63195894       0.86004572
H       -0.40636921      -0.33745955      -2.30147424      -0.40767699      -0.28918398       1.50231860      -0.40767699      -0.28918398       1.50231860
H       -0.69904049       1.15899972      -1.68740865      -1.02370107       0.78779092      -0.33542381      -1.02370107       0.78779092      -0.33542381
6
Properties=species:S:1:pos:R:3:REF_forces:R:3:forces:R:3 state=2 split=T T=T traj_n=2810 frame_id=11 type=scan REF_energy=-2562.810935844638 energy=-2562.810935844638 pbc="F F F"
C       -0.68086178      -0.04960323      -0.02691613      -1.63509714       5.17068189       1.91181440      -1.63509714       5.17068189       1.91181440
N       -0.27136389       0.23924617      -1.41850736       3.04535470      -2.83471790      -5.55335678       3.04535470      -2.83471790      -5.55335678
H       -0.63690188       1.12058029       0.29452475      -0.02723049      -3.04031925       1.47264861      -0.02723049      -3.04031925       1.47264861
H        0.09021723      -0.90923116      -0.00300627       0.22481355      -0.93351112       0.16222892       0.22481355      -0.93351112       0.16222892
H       -0.56096066      -0.34773421      -2.26983639       0.42968367      -0.11200010       1.36602679       0.42968367      -0.11200010       1.36602679
H       -0.62589698       1.15673724      -1.65622401      -2.03752430       1.74986646       0.64063806      -2.03752430       1.74986646       0.64063806
6
Properties=species:S:1:pos:R:3:REF_forces:R:3:forces:R:3 state=2 split=T T=T traj_n=2810 frame_id=12 type=scan REF_energy=-2562.5322566606346 energy=-2562.5322566606346 pbc="F F F"
C       -0.57257878      -0.01840119       0.01569572      -2.57591144       5.34390621       0.13927307      -2.57591144       5.34390621       0.13927307
N       -0.24252767       0.21276028      -1.42129396       2.29957160      -4.34348721      -5.22724943       2.29957160      -4.34348721      -5.22724943
H       -0.69791290       1.16997505       0.22801097       0.68889591      -2.87033182       2.36061603       0.68889591      -2.87033182       2.36061603
H        0.09762894      -0.95111941      -0.03325338       0.59273633      -0.43946145       0.42097716       0.59273633      -0.43946145       0.42097716
H       -0.69603029      -0.34257987      -2.22453787       0.65972864      -0.23218993       1.29591109       0.65972864      -0.23218993       1.29591109
H       -0.57434724       1.13936024      -1.64458690      -1.66502104       2.54156421       1.01047207      -1.66502104       2.54156421       1.01047207
6
Properties=species:S:1:pos:R:3:REF_forces:R:3:forces:R:3 state=2 split=T T=T traj_n=2810 frame_id=13 type=scan REF_energy=-2562.2055101850174 energy=-2562.2055101850174 pbc="F F F"
C       -0.45317843       0.02453450       0.04734849      -2.74926315       5.16936642      -0.29749953      -2.74926315       5.16936642      -0.29749953
N       -0.22032480       0.18043932      -1.43306340       1.49190862      -4.47791180      -5.66057613       1.49190862      -4.47791180      -5.66057613
H       -0.75265222       1.19525265       0.15400963       0.94432177      -2.66427424       2.85586287       0.94432177      -2.66427424       2.85586287
H        0.09273012      -0.97621043      -0.05406100       0.43261556      -0.42053127       0.68506792       0.43261556      -0.42053127       0.68506792
H       -0.84649099      -0.33561887      -2.14538743       0.83670140      -0.45562005       1.28513052       0.83670140      -0.45562005       1.28513052
H       -0.50585164       1.12159792      -1.64881170      -0.95628420       2.84897095       1.13201435      -0.95628420       2.84897095       1.13201435
6
Properties=species:S:1:pos:R:3:REF_forces:R:3:forces:R:3 state=2 split=T T=T traj_n=2810 frame_id=14 type=scan REF_energy=-2562.013322769731 energy=-2562.013322769731 pbc="F F F"
C       -0.32433613       0.07755031       0.06521942      -2.34474893       5.15439587      -0.44594068      -2.34474893       5.15439587      -0.44594068
N       -0.21066468       0.14083725      -1.45058712       0.83843160      -4.35575081      -5.87944170       0.83843160      -4.35575081      -5.87944170
H       -0.79019232       1.19670437       0.08707866       0.90555641      -2.49439273       3.13120704       0.90555641      -2.49439273       3.13120704
H        0.07467009      -0.98231993      -0.05890924      -0.09247434      -0.62443521       0.80158400      -0.09247434      -0.62443521       0.80158400
H       -0.98771618      -0.31455072      -2.05178536       0.94995822      -0.74002968       1.30147522       0.94995822      -0.74002968       1.30147522
H       -0.44752872       1.09177382      -1.67098178      -0.25672296       3.06021256       1.09111612      -0.25672296       3.06021256       1.09111612
6
Properties=species:S:1:pos:R:3:REF_forces:R:3:forces:R:3 state=2 split=T T=T traj_n=2810 frame_id=6 type=scan REF_energy=-2561.3740439907547 energy=-2561.3740439907547 pbc="F F F"
C       -0.98420160      -0.00210666      -0.18884565       6.85903239      -0.47880038       6.10790826       6.85903239      -0.47880038       6.10790826
N       -0.45902428       0.31710187      -1.46124115      -1.25591238       2.46547876      -8.67520405      -1.25591238       2.46547876      -8.67520405
H       -0.28893497       0.74932463       0.47154634      -3.22038923       0.46096667       0.79146030      -3.22038923       0.46096667       0.79146030
H       -0.08548501      -0.68885821       0.16106823      -2.65537269      -2.25054720       0.47399531      -2.65537269      -2.25054720       0.47399531
H        0.07755239      -0.26794307      -2.16091522       0.09528549      -0.40240720       1.54420639       0.09528549      -0.40240720       1.54420639
H       -0.94567448       1.10247653      -1.90157795       0.17735642       0.20530935      -0.24236621       0.17735642       0.20530935      -0.24236621
6
Properties=species:S:1:pos:R:3:REF_forces:R:3:forces:R:3 state=2 split=T T=T traj_n=2810 frame_id=7 type=scan REF_energy=-2561.606169864798 energy=-2561.606169864798 pbc="F F F"
C       -0.95869880      -0.02154755      -0.16984843       5.49904156      -0.38937364       5.95741859       5.49904156      -0.38937364       5.95741859
N       -0.42642036       0.30853163      -1.45045766      -0.24057524       1.68933094      -8.88268188      -0.24057524       1.68933094      -8.88268188
H       -0.32816877       0.80599535       0.46230171      -3.17111886      -0.01263840       0.56657489      -3.17111886      -0.01263840       0.56657489
H       -0.05704098      -0.71246964       0.14134085      -2.17685803      -1.49573567       0.23551811      -2.17685803      -1.49573567       0.23551811
H       -0.03944039      -0.30822173      -2.22197223      -0.07627426      -0.65192552       1.77911951      -0.07627426      -0.65192552       1.77911951
H       -0.87599865       1.13770703      -1.84132964       0.16578482       0.86034229       0.34405077       0.16578482       0.86034229       0.34405077
6
Properties=species:S:1:pos:R:3:REF_forces:R:3:forces:R:3 state=2 split=T T=T traj_n=2810 frame_id=8 type=scan REF_energy=-2561.8692273431116 energy=-2561.8692273431116 pbc="F F F"
C       -0.92147323      -0.04587805      -0.14847658       4.72373734      -0.39831862       5.38459480       4.72373734      -0.39831862       5.38459480
N       -0.38766442       0.29748600      -1.43932154      -0.05731833       2.08342207      -8.64538540      -0.05731833       2.08342207      -8.64538540
H       -0.38973404       0.87245530       0.44632720      -2.63502169      -0.73026855       0.19639052      -2.63502169      -0.73026855       0.19639052
H       -0.01909488      -0.74440670       0.11749924      -2.17044953      -1.14860175       0.76768143      -2.17044953      -1.14860175       0.76768143
H       -0.15140446      -0.32356871      -2.26997818       0.07960607      -0.87504002       1.86413526       0.07960607      -0.87504002       1.86413526
H       -0.81639693       1.15390726      -1.78601555       0.05944614       1.06880688       0.43258339       0.05944614       1.06880688       0.43258339
6
Properties=species:S:1:pos:R:3:REF_forces:R:3:forces:R:3 state=2 split=T T=T traj_n=2810 frame_id=9 type=scan REF_energy=-2562.175455062212 energy=-2562.175455062212 pbc="F F F"
C       -0.86472391      -0.06351750      -0.11735411       5.24608581       0.27358161       4.55061375       5.24608581       0.27358161       4.55061375
N       -0.34789207       0.28324079      -1.42883547      -1.26325986       2.45606774      -9.17576105      -1.26325986       2.45606774      -9.17576105
H       -0.46704204       0.95472721       0.41474372      -2.29904560      -1.90980064       0.63818857      -2.29904560      -1.90980064       0.63818857
H        0.02275772      -0.79267708       0.08261751      -2.42843379      -1.09151509       2.16332752      -2.42843379      -1.09151509       2.16332752
H       -0.26774668      -0.33175077      -2.29696878       0.44900885      -0.68177203       1.76503034       0.44900885      -0.68177203       1.76503034
H       -0.76112097       1.15997245      -1.73416828       0.29564459       0.95343842       0.05860088       0.29564459       0.95343842       0.05860088
6
Properties=species:S:1:pos:R:3:REF_forces:R:3:forces:R:3 state=2 split=T T=T traj_n=2811 frame_id=11 type=scan REF_energy=-2562.8490743736124 energy=-2562.8490743736124 pbc="F F F"
C       -0.33549830      -0.27667907      -0.42539112       1.77052750      -2.16347418       6.73013441       1.77052750      -2.16347418       6.73013441
N       -0.48180922       0.42603035      -1.69295783      -0.03971549       0.32599969      -2.99201823      -0.03971549       0.32599969      -2.99201823
H       -1.07614021      -0.24005771       0.54780034      -0.83055327      -0.31822473      -2.64795678      -0.83055327      -0.31822473      -2.64795678
H        0.33880483      -0.03813145       0.55001210       1.00136582       0.24245227      -1.68071074       1.00136582       0.24245227      -1.68071074