6
Properties=species:S:1:pos:R:3:REF_forces:R:3:forces:R:3 state=2 split=T T=T traj_n=11 frame_id=11 type=scan REF_energy=-2561.219503715791 energy=-2561.219503715791 pbc="F F F"
C       -0.61078741       0.00651902      -0.03715896      -3.44218210       2.00790590      -4.58824240      -3.44218210       2.00790590      -4.58824240
N       -0.71127233       0.35416263      -1.91675970       0.67544702       1.77789172       4.48216053       0.67544702       1.77789172       4.48216053
H        0.02656054       0.70120811       0.77488314       0.55968286      -0.27391270       0.03306056       0.55968286      -0.27391270       0.03306056
H       -0.17968853      -0.82204143       0.62813313       1.66213876      -0.42386698       0.21228854       1.66213876      -0.42386698       0.21228854
H       -0.26856443      -0.48362257      -2.33219544      -0.38522025       0.43730719      -0.80529691      -0.38522025       0.43730719      -0.80529691
H       -0.94201580       1.45376934      -2.19686759       0.93013371      -3.52532513       0.66602968       0.93013371      -3.52532513       0.66602968
6
Properties=species:S:1:pos:R:3:REF_forces:R:3:forces:R:3 state=2 split=T T=T traj_n=11 frame_id=13 type=scan REF_energy=-2561.927355350817 energy=-2561.927355350817 pbc="F F F"
C       -0.39949658      -0.01302982      -0.00278321       3.70159372       0.92502379       3.69337927       3.70159372       0.92502379       3.69337927
N       -0.81114341       0.36638822      -2.00405283       0.32494253       4.04411800       0.37983711       0.32494253       4.04411800       0.37983711
H        0.06111463       0.75486617       0.87170061      -1.69865995      -0.07402831      -2.35317983      -1.69865995      -0.07402831      -2.35317983
H       -0.17953423      -0.88960558       0.68731850      -1.55891759      -1.09986936      -0.76678871      -1.55891759      -1.09986936      -0.76678871
H       -0.43156233      -0.52300424      -2.36805444      -0.62775927       0.47749651      -1.01217484      -0.62775927       0.47749651      -1.01217484
H       -0.92514602       1.51438035      -2.26409403      -0.14119945      -4.27274064       0.05892700      -0.14119945      -4.27274064       0.05892700
6
Properties=species:S:1:pos:R:3:REF_forces:R:3:forces:R:3 state=2 split=T T=T traj_n=11 frame_id=5 type=scan REF_energy=-2563.054538765647 energy=-2563.054538765647 pbc="F F F"
C       -0.91304343       0.07565653      -0.17571361       7.07665700      -0.58793473      -0.19852157       7.07665700      -0.58793473      -0.19852157
N       -0.53528620       0.35115906      -1.66079994      -4.45871634       2.10922610      -0.00312352      -4.45871634       2.10922610      -0.00312352
H       -0.11801003       0.58469837       0.61630502      -1.01746174       2.13904703      -1.20416381      -1.01746174       2.13904703      -1.20416381
H       -0.21661279      -0.68973381       0.40515014      -3.61260321      -2.29763422      -0.20163356      -3.61260321      -2.29763422      -0.20163356
H        0.22544210      -0.21633786      -2.08461020       0.68574291       0.73331595       0.88228148       0.68574291       0.73331595       0.88228148
H       -1.12825760       1.10455282      -2.18029683       1.32638138      -2.09602012       0.72516098       1.32638138      -2.09602012       0.72516098
6
Properties=species:S:1:pos:R:3:REF_forces:R:3:forces:R:3 state=2 split=T T=T traj_n=11 frame_id=7 type=scan REF_energy=-2563.034498899592 energy=-2563.034498899592 pbc="F F F"
C       -0.84294264       0.08500200      -0.12104606       4.46390097       0.38776965       1.01908239       4.46390097       0.38776965       1.01908239
N       -0.56606129       0.34914519      -1.73630946      -2.89193118       1.51259639      -0.13721564      -2.89193118       1.51259639      -0.13721564
H       -0.03917733       0.61305527       0.65529606      -1.32227218       1.45868087      -1.05613909      -1.32227218       1.45868087      -1.05613909
H       -0.23450996      -0.72334099       0.47188366      -2.13020973      -1.57257811      -1.13464203      -2.13020973      -1.57257811      -1.13464203
H       -0.01103068      -0.39992675      -2.19215348       0.54183342       0.71772493       0.31140452       0.54183342       0.71772493       0.31140452
H       -0.99204605       1.28606037      -2.15763613       1.33867871      -2.50419373       0.99750984       1.33867871      -2.50419373       0.99750984
6
Properties=species:S:1:pos:R:3:REF_forces:R:3:forces:R:3 state=2 split=T T=T traj_n=11 frame_id=9 type=scan REF_energy=-2562.5453181123207 energy=-2562.5453181123207 pbc="F F F"
C       -0.75319376       0.04859795      -0.07707217      -3.07729398       2.20846821      -3.18768707      -3.07729398       2.20846821      -3.18768707
N       -0.61945450       0.35047099      -1.82337254       0.53873470       1.08908686       4.12959201       0.53873470       1.08908686       4.12959201
H       -0.01290663       0.65450397       0.71161816       0.42365013      -0.44728917      -0.31217865       0.42365013      -0.44728917      -0.31217865
H       -0.20854741      -0.76595682       0.54210397       1.64381421      -0.38886917      -0.26738070       1.64381421      -0.38886917      -0.26738070
H       -0.14987198      -0.46016744      -2.26607062      -0.41368231       0.51028431      -0.98049279      -0.41368231       0.51028431      -0.98049279
H       -0.94179366       1.38254644      -2.16717220       0.88477725      -2.97168103       0.61814720       0.88477725      -2.97168103       0.61814720
6
Properties=species:S:1:pos:R:3:REF_forces:R:3:forces:R:3 state=2 split=T T=T traj_n=139 frame_id=12 type=scan REF_energy=-2562.7907057274565 energy=-2562.7907057274565 pbc="F F F"
C       -0.67376999       0.14158604      -0.25327382       1.27029528      -2.22640910      13.38946628       1.27029528      -2.22640910      13.38946628
N       -0.43739870       0.36635278      -1.55776190       2.49593065      -3.39006005      -7.57526937       2.49593065      -3.39006005      -7.57526937
H       -0.28902278       0.81220442       0.61318604      -1.13447342       0.40312556      -1.35836873      -1.13447342       0.40312556      -1.35836873
H       -0.18602919      -0.80143189       0.23619772      -1.34852773       0.14277969      -1.44048444      -1.34852773       0.14277969      -1.44048444
H       -0.32408366      -0.43969976      -2.16845877       0.65111101      -0.28402492      -0.34349732       0.65111101      -0.28402492      -0.34349732
H       -0.77546363       1.13098350      -1.94985468      -1.93433579       5.35458881      -2.67184642      -1.93433579       5.35458881      -2.67184642
6
Properties=species:S:1:pos:R:3:REF_forces:R:3:forces:R:3 state=2 split=T T=T traj_n=139 frame_id=14 type=scan REF_energy=-2563.017558056658 energy=-2563.017558056658 pbc="F F F"
C       -0.52647447       0.15284620      -0.24095704       0.51083379      -2.52372005      13.62035394       0.51083379      -2.52372005      13.62035394
N       -0.41752218       0.36267062      -1.56552515       3.05241284      -4.33177576      -7.10362669       3.05241284      -4.33177576      -7.10362669
H       -0.33628131       0.90652110       0.60918063      -0.58483252      -0.30047239      -1.67249452      -0.58483252      -0.30047239      -1.67249452
H       -0.19789126      -0.87115566       0.19947238      -0.54591311       0.97432926      -1.07714677      -0.54591311       0.97432926      -1.07714677
H       -0.44041130      -0.45902566      -2.15855207       0.15999950      -0.44296317      -0.56967527       0.15999950      -0.44296317      -0.56967527
H       -0.76718742       1.11813850      -1.92358415      -2.59250051       6.62460212      -3.19741070      -2.59250051       6.62460212      -3.19741070
6
Properties=species:S:1:pos:R:3:REF_forces:R:3:forces:R:3 state=2 split=T T=T traj_n=155 frame_id=11 type=scan REF_energy=-2563.290216775926 energy=-2563.290216775926 pbc="F F F"
C       -0.62321655       0.02597243      -0.17737138       1.55786346      -0.09724814       8.86058182       1.55786346      -0.09724814       8.86058182
N       -0.53846022       0.30580303      -1.50675316      -0.16102963      -1.69213147     -10.15945534      -0.16102963      -1.69213147     -10.15945534
H       -0.27524960       0.97094094       0.42666879      -1.22533869      -0.80814002       0.78522977      -1.22533869      -0.80814002       0.78522977
H       -0.06792306      -0.86262789       0.18120812      -0.02960645      -0.36048472       0.05401981      -0.02960645      -0.36048472       0.05401981
H       -0.36680803      -0.46249607      -2.25017504      -0.51070323       1.58107121       1.31043142      -0.51070323       1.58107121       1.31043142
H       -0.81411049       1.23240265      -1.75354274       0.36881454       1.37693314      -0.85080748       0.36881454       1.37693314      -0.85080748
6
Properties=species:S:1:pos:R:3:REF_forces:R:3:forces:R:3 state=2 split=T T=T traj_n=216 frame_id=11 type=scan REF_energy=-2562.8644280444287 energy=-2562.8644280444287 pbc="F F F"
C       -0.76343706      -0.14164442      -0.10683087       4.59852804       4.12421382       4.82815499       4.59852804       4.12421382       4.82815499
N       -0.83803797      -0.07511197      -1.53896331      -2.09748440       2.40817203      -8.96887515      -2.09748440       2.40817203      -8.96887515
H       -0.25885441       0.88678858       0.33510800      -2.63572059      -0.51712577       1.03015111      -2.63572059      -0.51712577       1.03015111
H        0.20206908      -0.54292223       0.27046679       0.14089056      -2.11874062      -0.27993101       0.14089056      -2.11874062      -0.27993101
H        0.00364609       0.02959085      -2.23115680       0.21391846      -1.63324777       1.74088804       0.21391846      -1.63324777       1.74088804
H       -1.03115368       1.05329428      -1.80858922      -0.22013207      -2.26327169       1.64961202      -0.22013207      -2.26327169       1.64961202
6
Properties=species:S:1:pos:R:3:REF_forces:R:3:forces:R:3 state=2 split=T T=T traj_n=216 frame_id=7 type=scan REF_energy=-2563.38673975815 energy=-2563.38673975815 pbc="F F F"
C       -0.80487134      -0.30024278      -0.26480987       2.87086742       1.93189634       1.17467113       2.87086742       1.93189634       1.17467113
N       -0.49358013      -0.00293014      -1.59748553      -3.02087636       1.84562326      -3.61997459      -3.02087636       1.84562326      -3.61997459
H       -0.58990137       0.68882690       0.42716125       0.31303863       0.68314008      -0.78092443       0.31303863       0.68314008      -0.78092443
H        0.14802752      -0.43266666       0.36521676      -0.80378710      -2.75674806       1.57382898      -0.80378710      -2.75674806       1.57382898
H        0.32701710       0.59033032      -1.95952862       0.00121734       0.77911298       1.97542298       0.00121734       0.77911298       1.97542298
H       -1.27245973       0.66667746      -2.05051939       0.63954007      -2.48302461      -0.32302407       0.63954007      -2.48302461      -0.32302407
6
Properties=species:S:1:pos:R:3:REF_forces:R:3:forces:R:3 state=2 split=T T=T traj_n=216 frame_id=9 type=scan REF_energy=-2562.7010100955918 energy=-2562.7010100955918 pbc="F F F"
C       -0.81699214      -0.17236292      -0.16083148       1.62885384       1.25081994       3.24385982       1.62885384       1.25081994       3.24385982
N       -0.71091524      -0.06111513      -1.57028561      -1.34348785       4.39862077      -5.87970452      -1.34348785       4.39862077      -5.87970452
H       -0.32952212       0.82170259       0.36792607      -0.13646950      -0.23469211      -0.41359158      -0.13646950      -0.23469211      -0.41359158
H        0.14992729      -0.50906278       0.31850376      -0.02748631      -1.71439460       1.12317490      -0.02748631      -1.71439460       1.12317490
H        0.17826575       0.18368900      -2.14175657       0.66185415      -0.65028729       1.68389407       0.66185415      -0.65028729       1.68389407
H       -1.15653148       0.94714433      -1.89352158      -0.78326434      -3.05006670       0.24236731      -0.78326434      -3.05006670       0.24236731
6
Properties=species:S:1:pos:R:3:REF_forces:R:3:forces:R:3 state=2 split=T T=T traj_n=264 frame_id=10 type=scan REF_energy=-2559.9950420395066 energy=-2559.9950420395066 pbc="F F F"
C       -0.55764933       0.41057847      -0.34517633       3.21232224      -3.72698820      18.20165938       3.21232224      -3.72698820      18.20165938
N       -0.90190922       0.28070518      -1.57556224      -1.28213318       1.35808999     -14.41481894      -1.28213318       1.35808999     -14.41481894
H       -0.12320458       0.71328109       0.73303305      -0.84486367       1.84015418      -2.50540245      -0.84486367       1.84015418      -2.50540245
H       -0.02427423      -0.73226774       0.35456202      -0.04554787       1.08398188      -2.03288085      -0.04554787       1.08398188      -2.03288085
H       -0.73324444      -0.63678652      -2.17793961      -0.56039468       1.56983482       1.18896876      -0.56039468       1.56983482       1.18896876
H       -0.34548615       1.17448461      -2.06888230      -0.47938284      -2.12507267      -0.43752590      -0.47938284      -2.12507267      -0.43752590
6
Properties=species:S:1:pos:R:3:REF_forces:R:3:forces:R:3 state=2 split=T T=T traj_n=264 frame_id=12 type=scan REF_energy=-2560.0703832271406 energy=-2560.0703832271406 pbc="F F F"
C       -0.44844198       0.40733468      -0.37090310       6.00371990      -3.51928454      15.46376974       6.00371990      -3.51928454      15.46376974
N       -0.98320788       0.32881824      -1.52600000      -1.56022481       0.76585487     -12.23262498      -1.56022481       0.76585487     -12.23262498
H       -0.20700822       0.74587572       0.75259789      -2.02979471       1.28267135      -1.87123149      -2.02979471       1.28267135      -1.87123149
H        0.08425725      -0.79507351       0.34346225       0.14204254       1.46856861      -2.37030348       0.14204254       1.46856861      -2.37030348
H       -0.86160393      -0.57392276      -2.18707290      -1.32703698       1.62791695       1.45237823      -1.32703698       1.62791695       1.45237823
H       -0.26976321       1.09696272      -2.09204954      -1.22870594      -1.62572723      -0.44198801      -1.22870594      -1.62572723      -0.44198801
6
Properties=species:S:1:pos:R:3:REF_forces:R:3:forces:R:3 state=2 split=T T=T traj_n=264 frame_id=14 type=scan REF_energy=-2560.0236357231242 energy=-2560.0236357231242 pbc="F F F"
C       -0.43636489       0.36488696      -0.37234184       6.29495013      -3.22213788      15.10823934       6.29495013      -3.22213788      15.10823934
N       -1.05389271       0.33283686      -1.47825522      -1.07223370       0.53436728     -12.28934128      -1.07223370       0.53436728     -12.28934128
H       -0.28528009       0.82984582       0.71930659      -1.49496116       0.39497411      -1.94898432      -1.49496116       0.39497411      -1.94898432
H        0.22135652      -0.86087572       0.32597317      -0.42918416       1.70763034      -1.98333988      -0.42918416       1.70763034      -1.98333988
H       -0.87265438      -0.51594499      -2.21907969      -1.59512801       1.41607179       1.82564315      -1.59512801       1.41607179       1.82564315
H       -0.25893239       1.05924616      -2.05556843      -1.70344310      -0.83090565      -0.71221701      -1.70344310      -0.83090565      -0.71221701
6
Properties=species:S:1:pos:R:3:REF_forces:R:3:forces:R:3 state=2 split=T T=T traj_n=264 frame_id=5 type=scan REF_energy=-2562.0739633434864 energy=-2562.0739633434864 pbc="F F F"
C       -0.74066435       0.44270984      -0.28526562       0.97397387      -3.67693446       5.75704524       0.97397387      -3.67693446       5.75704524
N       -0.60821380       0.26892205      -1.57908115      -0.31513975       2.54455152      -4.82662259      -0.31513975       2.54455152      -4.82662259
H        0.12795894       0.52760286       0.55428886       2.70797245       0.90922466      -1.82542988       2.70797245       0.90922466      -1.82542988
H       -0.41808550      -0.63775877       0.40722284      -4.20926006       0.87580180       0.58489710      -4.20926006       0.87580180       0.58489710
H       -0.19556077      -0.59291426      -2.07304856       1.58070583       1.76014460       0.53939336       1.58070583       1.76014460       0.53939336
H       -0.85120246       1.20143337      -2.10408178      -0.73825234      -2.41278811      -0.22928324      -0.73825234      -2.41278811      -0.22928324
6
Properties=species:S:1:pos:R:3:REF_forces:R:3:forces:R:3 state=2 split=T T=T traj_n=264 frame_id=7 type=scan REF_energy=-2560.9170209990666 energy=-2560.9170209990666 pbc="F F F"
C       -0.68057659       0.42242019      -0.31115946       2.78792360      -3.40324509      16.80604524       2.78792360      -3.40324509      16.80604524
N       -0.71445499       0.23594428      -1.59798772      -1.13100190       1.07046218     -13.59214268      -1.13100190       1.07046218     -13.59214268
H        0.07821361       0.62407831       0.60536862       0.36364250       2.91220738      -1.41397299       0.36364250       2.91220738      -1.41397299
H       -0.29887587      -0.67245234       0.41603580      -2.65055856       0.63319244      -2.36264544      -2.65055856       0.63319244      -2.36264544
H       -0.37379958      -0.65524762      -2.12404218       0.41156582       1.52082651       0.78890378       0.41156582       1.52082651       0.78890378
H       -0.69627452       1.25525227      -2.06818047       0.21842854      -2.73344343      -0.22618791       0.21842854      -2.73344343      -0.22618791
6
Properties=species:S:1:pos:R:3:REF_forces:R:3:forces:R:3 state=2 split=T T=T traj_n=264 frame_id=8 type=scan REF_energy=-2560.606037635828 energy=-2560.606037635828 pbc="F F F"
C       -0.64491614       0.41183422      -0.32340368       1.81749351      -3.09624888      18.02464903       1.81749351      -3.09624888      18.02464903
N       -0.77747859       0.23716347      -1.59958736      -0.59878045       1.10813283     -14.57110448      -0.59878045       1.10813283     -14.57110448
H        0.01422743       0.66953478       0.65096409       0.68453456       2.30169007      -1.77612596       0.68453456       2.30169007      -1.77612596
H       -0.20509770      -0.69269941       0.40129200      -1.96713030       0.93339832      -2.26953374      -1.96713030       0.93339832      -2.26953374
H       -0.50411001      -0.67077486      -2.15048501       0.37751610       1.48215918       0.81036809       0.37751610       1.48215918       0.81036809
H       -0.56839293       1.25493690      -2.05874545      -0.31363342      -2.72913152      -0.21825293      -0.31363342      -2.72913152      -0.21825293
6
Properties=species:S:1:pos:R:3:REF_forces:R:3:forces:R:3 state=2 split=T T=T traj_n=264 frame_id=9 type=scan REF_energy=-2560.1965303119787 energy=-2560.1965303119787 pbc="F F F"
C       -0.60189256       0.41108990      -0.33443481       1.87845682      -3.24420278      19.14745296       1.87845682      -3.24420278      19.14745296
N       -0.84798029       0.25071973      -1.58969721      -0.73843852       1.19578341     -15.52033754      -0.73843852       1.19578341     -15.52033754
H       -0.04915374       0.69798965       0.69411926       0.50900483       1.97007814      -2.30916745       0.50900483       1.97007814      -2.30916745
H       -0.11258462      -0.71140346       0.37885059      -1.14720983       1.09400888      -2.05666721      -1.14720983       1.09400888      -2.05666721
H       -0.61737443      -0.66068673      -2.16709665       0.10279591       1.43863281       0.96972941       0.10279591       1.43863281       0.96972941
H       -0.45678231       1.22228599      -2.06170659      -0.60460922      -2.45430047      -0.23101017      -0.60460922      -2.45430047      -0.23101017
6
Properties=species:S:1:pos:R:3:REF_forces:R:3:forces:R:3 state=2 split=T T=T traj_n=29 frame_id=12 type=scan REF_energy=-2563.143834670415 energy=-2563.143834670415 pbc="F F F"
C       -0.50434603       0.05824379      -0.10550356      -0.26454620      -2.98039721      -5.72113995      -0.26454620      -2.98039721      -5.72113995
N       -0.52694700       0.37649582      -1.61204122       0.30414433       2.53256431       4.87745163       0.30414433       2.53256431       4.87745163
H       -0.36889760       1.04827048       0.55226159       0.24766080       0.93558342       0.96186436       0.24766080       0.93558342       0.96186436
H       -0.11274112      -1.04714948       0.18087332      -0.06437946       2.03094453       0.80570122      -0.06437946       2.03094453       0.80570122
H       -0.32298671      -0.50492783      -2.05715476      -0.49251977      -1.35770755      -1.00304378      -0.49251977      -1.35770755      -1.00304378
H       -0.84984949       1.27906231      -2.03840077       0.26964031      -1.16098750       0.07916652       0.26964031      -1.16098750       0.07916652
6
Properties=species:S:1:pos:R:3:REF_forces:R:3:forces:R:3 state=2 split=T T=T traj_n=29 frame_id=5 type=scan REF_energy=-2563.260568237487 energy=-2563.260568237487 pbc="F F F"
C       -0.89156118       0.02955644      -0.23201715       3.20976980      -0.42735039       4.68432723       3.20976980      -0.42735039       4.68432723
N       -0.53278494       0.36194494      -1.56463671      -1.66543739       1.27730761      -3.92618092      -1.66543739       1.27730761      -3.92618092
H       -0.28631341       0.73015414       0.54938188      -0.11562199       0.01674948      -0.57824028      -0.11562199       0.01674948      -0.57824028
H       -0.12189827      -0.77224375       0.26139536      -2.80686143      -0.77968916      -0.21933042      -2.80686143      -0.77968916      -0.21933042
H        0.22236733      -0.20178701      -1.97785431       1.40427703       1.06305881       0.21292075       1.40427703       1.06305881       0.21292075
H       -1.07557748       1.06237033      -2.11623447      -0.02612602      -1.15007635      -0.17349636      -0.02612602      -1.15007635      -0.17349636
6
Properties=species:S:1:pos:R:3:REF_forces:R:3:forces:R:3 state=2 split=T T=T traj_n=29 frame_id=7 type=scan REF_energy=-2563.490464127561 energy=-2563.490464127561 pbc="F F F"
C       -0.77793667       0.03902653      -0.17922637       1.68751820       0.86881456       3.28875717       1.68751820       0.86881456       3.28875717
N       -0.53382106       0.36257240      -1.57422657      -0.48215441      -0.87320400      -3.22072378      -0.48215441      -0.87320400      -3.22072378
H       -0.30992177       0.88091636       0.55094003      -0.98303399      -0.94031158       0.74631144      -0.98303399      -0.94031158       0.74631144
H       -0.10447416      -0.88928980       0.22162384      -0.82281554       0.96759668      -0.55894637      -0.82281554       0.96759668      -0.55894637
H        0.01362286      -0.36311319      -2.04366213       0.06380463       0.36882260      -0.74719698       0.06380463       0.36882260      -0.74719698
H       -0.97323715       1.17988279      -2.05541422       0.53668111      -0.39171827       0.49179852       0.53668111      -0.39171827       0.49179852
6
Properties=species:S:1:pos:R:3:REF_forces:R:3:forces:R:3 state=2 split=T T=T traj_n=29 frame_id=9 type=scan REF_energy=-2563.538362528986 energy=-2563.538362528986 pbc="F F F"
C       -0.65346401       0.04567259      -0.13846321      -0.20875041       0.66171411      -2.78036777      -0.20875041       0.66171411      -2.78036777
N       -0.52662150       0.36798207      -1.58366358      -0.02712595      -0.87991505       1.97273261      -0.02712595      -0.87991505       1.97273261
H       -0.35143360       0.98251239       0.55257392      -0.07086125      -0.54506675       1.41374487      -0.07086125      -0.54506675       1.41374487
H       -0.09280944      -0.97567471       0.19005898       0.34468641       1.42255225       0.34967323       0.34468641       1.42255225       0.34967323
H       -0.17886602      -0.45549502      -2.06946981      -0.62191431      -0.12433663      -1.26903569      -0.62191431      -0.12433663      -1.26903569
H       -0.88257338       1.24499778      -2.03100170       0.58396551      -0.53494792       0.31325275       0.58396551      -0.53494792       0.31325275
6
Properties=species:S:1:pos:R:3:REF_forces:R:3:forces:R:3 state=2 split=T T=T traj_n=293 frame_id=11 type=scan REF_energy=-2562.1086212640744 energy=-2562.1086212640744 pbc="F F F"
C       -0.75668568      -0.23052932      -0.03338343      -4.12791004      -0.01771798      -3.78854562      -4.12791004      -0.01771798      -3.78854562
N       -0.66544844       0.70466139      -1.70340842       4.34150845      -1.95790949       1.31510722       4.34150845      -1.95790949       1.31510722
H       -0.69608831       0.41033643       0.99310237       1.57975373       0.17263323       0.00932916       1.57975373       0.17263323       0.00932916
H        0.31148210      -0.68418207       0.27696388       1.59738650       1.23222477       0.72983248       1.59738650       1.23222477       0.72983248
H        0.35950993       0.80146285      -2.20664750      -2.37026395       0.36357717       1.48647005      -2.37026395       0.36357717       1.48647005
H       -1.23853755       0.20824582      -2.40659231      -1.02047469       0.20719231       0.24780670      -1.02047469       0.20719231       0.24780670
6
Properties=species:S:1:pos:R:3:REF_forces:R:3:forces:R:3 state=2 split=T T=T traj_n=293 frame_id=13 type=scan REF_energy=-2561.67176534895 energy=-2561.67176534895 pbc="F F F"
C       -0.67347107      -0.02990979       0.11888227       2.54324475      -1.96513811       3.09346878       2.54324475      -1.96513811       3.09346878
N       -0.56431974       0.75749229      -1.80281807       3.49976775       1.18814909      -2.74085783       3.49976775       1.18814909      -2.74085783
H       -0.47675494       0.63347461       1.11275081      -1.52395722       0.97188644      -2.38499665      -1.52395722       0.97188644      -2.38499665
H        0.09200379      -0.93571884       0.28212655      -1.27064030       0.28639654      -2.07282789      -1.27064030       0.28639654      -2.07282789
H        0.31919669       0.38204446      -2.46575891      -1.54762811       0.37682645       2.92352472      -1.54762811       0.37682645       2.92352472
H       -1.38242269       0.40261236      -2.32514807      -1.70078687      -0.85812041       1.18168888      -1.70078687      -0.85812041       1.18168888
6
Properties=species:S:1:pos:R:3:REF_forces:R:3:forces:R:3 state=2 split=T T=T traj_n=293 frame_id=14 type=scan REF_energy=-2561.886122438264 energy=-2561.886122438264 pbc="F F F"
C       -0.56735986       0.02865198       0.18631988       1.63990389      -2.36131229       2.96869909       1.63990389      -2.36131229       2.96869909
N       -0.53734704       0.76866085      -1.85885771       2.95448845       0.10236560      -3.40000819       2.95448845       0.10236560      -3.40000819
H       -0.39126716       0.71661386       1.16561242      -0.85857887       0.52679318      -2.48417953      -0.85857887       0.52679318      -2.48417953
H        0.00328555      -1.01716307       0.28897887      -1.07837635       1.14138939      -1.56974820      -1.07837635       1.14138939      -1.56974820
H        0.23538081       0.24447022      -2.57618525      -1.08455203       0.93680511       3.11810671      -1.08455203       0.93680511       3.11810671
H       -1.42846025       0.46876126      -2.28583362      -1.57288509      -0.34604099       1.36713012      -1.57288509      -0.34604099       1.36713012
6
Properties=species:S:1:pos:R:3:REF_forces:R:3:forces:R:3 state=2 split=T T=T traj_n=293 frame_id=15 type=scan REF_energy=-2561.9509007780994 energy=-2561.9509007780994 pbc="F F F"
C       -0.43386603       0.06939294       0.24930529       0.36352763      -2.61242081       2.67776453       0.36352763      -2.61242081       2.67776453
N       -0.50051422       0.77148196      -1.92159227       2.46230992      -0.48641973      -3.88174802       2.46230992      -0.48641973      -3.88174802
H       -0.29122099       0.78860825       1.21075071      -0.29399488       0.14689370      -2.60666226      -0.29399488       0.14689370      -2.60666226
H       -0.11095697      -1.07868066       0.30177460      -0.51685538       1.73325769      -1.20217979      -0.51685538       1.73325769      -1.20217979
H        0.11154072       0.09329951      -2.68123837      -0.46727100       1.25262206       3.31630475      -0.46727100       1.25262206       3.31630475
H       -1.46075047       0.56589308      -2.23896537      -1.54771630      -0.03393290       1.69652080      -1.54771630      -0.03393290       1.69652080
6
Properties=species:S:1:pos:R:3:REF_forces:R:3:forces:R:3 state=2 split=T T=T traj_n=293 frame_id=8 type=scan REF_energy=-2563.4429154931286 energy=-2563.4429154931286 pbc="F F F"
C       -0.37987149      -0.53181146      -0.29373319      -0.69857449       4.35017321      -0.78279738      -0.69857449       4.35017321      -0.78279738
N       -0.79737818       0.45800692      -1.63528838       1.91859652      -0.65747542       1.41580915       1.91859652      -0.65747542       1.41580915
H       -0.93722613      -0.20446294       0.73482544      -0.84810401      -0.36411100      -0.98792996      -0.84810401      -0.36411100      -0.98792996
H        0.44794739       0.02495390       0.38514040       0.90478531      -1.25857164      -1.09425339       0.90478531      -1.25857164      -1.09425339
H       -0.36895814       1.48436444      -1.72942260      -1.28759389      -1.63721381       1.17412645      -1.28759389      -1.63721381       1.17412645