6
Properties=species:S:1:pos:R:3:REF_forces:R:3:forces:R:3 state=1 split=T T=T traj_n=13 frame_id=10 type=scan REF_energy=-2564.217369885299 energy=-2564.217369885299 pbc="F F F"
C       -0.49694084      -0.16085541      -0.31056606       3.06925670       2.27788080       3.75847559       3.06925670       2.27788080       3.75847559
N       -0.60580228       0.59502832      -1.37065281       1.82062390      -1.29132090      -3.38440346       1.82062390      -1.29132090      -3.38440346
H       -1.13437195      -0.36675503       0.63853264      -0.85603361      -1.91696875      -1.32707830      -0.85603361      -1.91696875      -1.32707830
H        0.59857502       0.00912027       0.31950481      -1.97155536       0.27299871      -0.91669918      -1.97155536       0.27299871      -0.91669918
H       -1.13665226       1.28968571      -1.93300698       0.42286823       0.18584245       0.59175314       0.42286823       0.18584245       0.59175314
H        0.08942437      -0.15622877      -2.42377700      -2.48515986       0.47156770       1.27795221      -2.48515986       0.47156770       1.27795221
6
Properties=species:S:1:pos:R:3:REF_forces:R:3:forces:R:3 state=1 split=T T=T traj_n=13 frame_id=12 type=scan REF_energy=-2564.7822190444676 energy=-2564.7822190444676 pbc="F F F"
C       -0.51566329       0.04773826      -0.20778463       3.25723051       0.58980968       2.31264903       3.25723051       0.58980968       2.31264903
N       -0.49022673       0.70304718      -1.33128720       1.03556776      -0.67120101      -0.88460305       1.03556776      -0.67120101      -0.88460305
H       -1.27170144      -0.13921139       0.64141360      -0.56618629      -1.33763389      -1.66577281      -0.56618629      -1.33763389      -1.66577281
H        0.65569962      -0.29049287       0.20418332      -2.24022663       1.54743381      -0.28869404      -2.24022663       1.54743381      -0.28869404
H       -0.86501614       1.38187296      -2.02241337       0.14062474       0.23514559       0.56973731       0.14062474       0.23514559       0.56973731
H       -0.19885997      -0.49295904      -2.36407711      -1.62701008      -0.36355419      -0.04331644      -1.62701008      -0.36355419      -0.04331644
6
Properties=species:S:1:pos:R:3:REF_forces:R:3:forces:R:3 state=1 split=T T=T traj_n=13 frame_id=4 type=scan REF_energy=-2565.056008132875 energy=-2565.056008132875 pbc="F F F"
C       -0.21748393      -0.41290206      -0.49509419       1.33980361      -1.15372540      -0.11219866       1.33980361      -1.15372540      -0.11219866
N       -0.58203213       0.41002740      -1.47122704       2.23172374       0.57555575      -3.83016006       2.23172374       0.57555575      -3.83016006
H       -0.88682957      -0.44939242       0.49673693       0.17342764       0.46210454       0.54255256       0.17342764       0.46210454       0.54255256
H        0.24575336       0.23950821       0.45662069      -1.41806752       0.02662643       0.12421918      -1.41806752       0.02662643       0.12421918
H       -1.37039583       1.06546511      -1.65579977      -0.01107862       0.28001313       0.74823221      -0.01107862       0.28001313       0.74823221
H        0.12522014       0.35728885      -2.41120203      -2.31580886      -0.19057446       2.52735477      -2.31580886      -0.19057446       2.52735477
6
Properties=species:S:1:pos:R:3:REF_forces:R:3:forces:R:3 state=1 split=T T=T traj_n=13 frame_id=6 type=scan REF_energy=-2564.503077468266 energy=-2564.503077468266 pbc="F F F"
C       -0.30658174      -0.36945988      -0.45008802       1.01174486       1.27397958       1.55647582       1.01174486       1.27397958       1.55647582
N       -0.62479075       0.42916228      -1.45174799       3.17805039      -0.47205671      -4.57637091       3.17805039      -0.47205671      -4.57637091
H       -0.91071476      -0.45826439       0.56475784      -0.52507545      -0.24970317       0.19653313      -0.52507545      -0.24970317       0.19653313
H        0.34072738       0.24146008       0.43148290      -0.64920875      -0.86490154      -0.89826536      -0.64920875      -0.86490154      -0.89826536
H       -1.36993722       1.08333786      -1.76855517      -0.23233336      -0.08835669       0.72426428      -0.23233336      -0.08835669       0.72426428
H        0.18552914       0.28375914      -2.40581498      -2.78317769       0.40103853       2.99736304      -2.78317769       0.40103853       2.99736304
6
Properties=species:S:1:pos:R:3:REF_forces:R:3:forces:R:3 state=1 split=T T=T traj_n=13 frame_id=8 type=scan REF_energy=-2564.2506910655966 energy=-2564.2506910655966 pbc="F F F"
C       -0.40115178      -0.29492232      -0.39496173       1.69052347       3.04790688       3.30505845       1.69052347       3.04790688       3.30505845
N       -0.63979283       0.49433711      -1.41676470       3.04084100      -1.46709545      -4.99248723       3.04084100      -1.46709545      -4.99248723
H       -0.98555935      -0.46325506       0.60742293      -0.81059221      -1.52329095      -0.54786486      -0.81059221      -1.52329095      -0.54786486
H        0.45628313       0.18549602       0.39908088      -0.98236493      -0.82330135      -1.39430205      -0.98236493      -0.82330135      -1.39430205
H       -1.30049210       1.17153182      -1.85027595       0.07833938       0.03090967       0.76379574       0.07833938       0.03090967       0.76379574
H        0.18494498       0.11680753      -2.42446685      -3.01674670       0.73487120       2.86579995      -3.01674670       0.73487120       2.86579995
6
Properties=species:S:1:pos:R:3:REF_forces:R:3:forces:R:3 state=1 split=T T=T traj_n=136 frame_id=10 type=scan REF_energy=-2563.423375026757 energy=-2563.423375026757 pbc="F F F"
C       -0.43815860       0.57247476      -0.26928087      -1.70003016      -3.15543290      -2.61549711      -1.70003016      -3.15543290      -2.61549711
N       -0.20309405       0.15149664      -1.78300966       0.88800854       3.02688546       3.90180969       0.88800854       3.02688546       3.90180969
H       -0.28751149       0.67555102       0.89881218       1.16477288       1.21321166      -1.48065002       1.16477288       1.21321166      -1.48065002
H       -0.45089238      -0.68379415       0.45809990      -0.07220889      -0.35168119      -0.48003977      -0.07220889      -0.35168119      -0.48003977
H       -0.85493766      -0.57371239      -2.12284142      -0.75000678      -0.05179629       0.67571592      -0.75000678      -0.05179629       0.67571592
H       -0.45117376       1.06797921      -2.26174553       0.46946442      -0.68118674      -0.00133872       0.46946442      -0.68118674      -0.00133872
6
Properties=species:S:1:pos:R:3:REF_forces:R:3:forces:R:3 state=1 split=T T=T traj_n=136 frame_id=11 type=scan REF_energy=-2563.220299778089 energy=-2563.220299778089 pbc="F F F"
C       -0.34897729       0.56098182      -0.27222699      -0.85137079      -3.34684210      -1.95074063      -0.85137079      -3.34684210      -1.95074063
N       -0.20350845       0.09455504      -1.81495511       0.71756210       3.04508403       3.58084927       0.71756210       3.04508403       3.58084927
H       -0.37027755       0.72881732       0.89429337       0.16470133       1.40918650      -1.57940552       0.16470133       1.40918650      -1.57940552
H       -0.38589384      -0.70101094       0.49900770       0.41762347      -0.43243773      -0.55443576       0.41762347      -0.43243773      -0.55443576
H       -0.97916298      -0.51352609      -2.11949802      -0.97618464      -0.00984489       0.67482184      -0.97618464      -0.00984489       0.67482184
H       -0.39794785       1.04017795      -2.26658636       0.52766852      -0.66514580      -0.17108920       0.52766852      -0.66514580      -0.17108920
6
Properties=species:S:1:pos:R:3:REF_forces:R:3:forces:R:3 state=1 split=T T=T traj_n=136 frame_id=13 type=scan REF_energy=-2563.44883846491 energy=-2563.44883846491 pbc="F F F"
C       -0.26130047       0.51399237      -0.26842307       0.42722434      -3.14595256      -1.14773380       0.42722434      -3.14595256      -1.14773380
N       -0.21370648       0.01215691      -1.87277586      -0.52184551       2.96517830       3.81274668      -0.52184551       2.96517830       3.81274668
H       -0.51022609       0.81493524       0.83638653      -1.01982643       0.92090379      -1.71379330      -1.01982643       0.92090379      -1.71379330
H       -0.23087592      -0.74996034       0.60686560       1.00616615       0.09163804      -0.83739175       1.00616615       0.09163804      -0.83739175
H       -1.12852015      -0.38608199      -2.12763857      -1.02048347      -0.22204177       0.43799010      -1.02048347      -0.22204177       0.43799010
H       -0.34113884       1.00495290      -2.25438004       1.12876492      -0.60972580      -0.55181792       1.12876492      -0.60972580      -0.55181792
6
Properties=species:S:1:pos:R:3:REF_forces:R:3:forces:R:3 state=1 split=T T=T traj_n=136 frame_id=15 type=scan REF_energy=-2563.2361453981107 energy=-2563.2361453981107 pbc="F F F"
C       -0.16434255       0.43766521      -0.25405821       0.26492466      -1.86962561      -2.35324717       0.26492466      -1.86962561      -2.35324717
N       -0.19674245       0.01659757      -1.95284310      -0.92068687       2.77509189       4.72759176      -0.92068687       2.77509189       4.72759176
H       -0.53543378       0.90580685       0.74624550      -0.63049145      -0.06471547      -1.36166638      -0.63049145      -0.06471547      -1.36166638
H       -0.19917335      -0.84844333       0.70052468       0.61206321       0.30375038      -0.77255049       0.61206321       0.30375038      -0.77255049
H       -1.14416285      -0.33935225      -2.13315268      -0.84366014      -0.89636356       0.39690051      -0.84366014      -0.89636356       0.39690051
H       -0.44591296       1.03772105      -2.18668160       1.51785059      -0.24813762      -0.63702822       1.51785059      -0.24813762      -0.63702822
6
Properties=species:S:1:pos:R:3:REF_forces:R:3:forces:R:3 state=1 split=T T=T traj_n=136 frame_id=5 type=scan REF_energy=-2564.977341545158 energy=-2564.977341545158 pbc="F F F"
C       -0.69323426       0.57942614      -0.22934966      -0.90939643      -1.95988353      -1.88806336      -0.90939643      -1.95988353      -1.88806336
N       -0.39582597       0.33514344      -1.63303811      -0.43810912       1.57263929       2.80469908      -0.43810912       1.57263929       2.80469908
H        0.10693679       0.40778627       0.65122213       1.15583263      -0.30277093      -0.64533712       1.15583263      -0.30277093      -0.64533712
H       -0.61289614      -0.60550661       0.36300412      -0.38750358       1.30184690      -0.02195534      -0.38750358       1.30184690      -0.02195534
H       -0.29156766      -0.62136635      -2.02073509       0.11694772       0.15729830      -0.12745303       0.11694772       0.15729830      -0.12745303
H       -0.79918070       1.11451220      -2.21106880       0.46222878      -0.76913003      -0.12189023       0.46222878      -0.76913003      -0.12189023
6
Properties=species:S:1:pos:R:3:REF_forces:R:3:forces:R:3 state=1 split=T T=T traj_n=136 frame_id=7 type=scan REF_energy=-2564.4326383465173 energy=-2564.4326383465173 pbc="F F F"
C       -0.62016970       0.59138992      -0.24807691      -0.73582063      -2.66068538      -2.62209368      -0.73582063      -2.66068538      -2.62209368
N       -0.28828059       0.29662097      -1.68709646      -0.20382607       2.43107014       3.78166018      -0.20382607       2.43107014       3.78166018
H       -0.01641808       0.49264594       0.77728409       1.20839881       0.52471842      -1.09972383       1.20839881       0.52471842      -1.09972383
H       -0.60617084      -0.63233487       0.37694033      -0.54114232       0.50182355      -0.10568874      -0.54114232       0.50182355      -0.10568874
H       -0.47663491      -0.64902823      -2.06426998      -0.24313490      -0.02261369       0.12179471      -0.24313490      -0.02261369       0.12179471
H       -0.67809383       1.11070136      -2.23474648       0.51552512      -0.77431303      -0.07594864       0.51552512      -0.77431303      -0.07594864
6
Properties=species:S:1:pos:R:3:REF_forces:R:3:forces:R:3 state=1 split=T T=T traj_n=136 frame_id=8 type=scan REF_energy=-2564.1053814533266 energy=-2564.1053814533266 pbc="F F F"
C       -0.55974248       0.59564237      -0.25710016      -1.14119432      -2.91000272      -2.78210520      -1.14119432      -2.91000272      -2.78210520
N       -0.24599228       0.25606060      -1.71808805       0.15528092       2.69955224       3.93701339       0.15528092       2.69955224       3.93701339
H       -0.09400004       0.54713326       0.83686414       1.32745761       0.82477437      -1.26103849       1.32745761       0.82477437      -1.26103849
H       -0.58264320      -0.64393050       0.39142317      -0.45254713       0.14886579      -0.22297318      -0.45254713       0.14886579      -0.22297318
H       -0.59871398      -0.64415860      -2.08573364      -0.43708884      -0.03943440       0.34358549      -0.43708884      -0.03943440       0.34358549
H       -0.60467596       1.09924797      -2.24733086       0.54809176      -0.72375528      -0.01448201       0.54809176      -0.72375528      -0.01448201
6
Properties=species:S:1:pos:R:3:REF_forces:R:3:forces:R:3 state=1 split=T T=T traj_n=136 frame_id=9 type=scan REF_energy=-2563.740496056892 energy=-2563.740496056892 pbc="F F F"
C       -0.49731954       0.58937210      -0.26468119      -1.65891103      -3.03907553      -2.86163584      -1.65891103      -3.03907553      -2.86163584
N       -0.21771845       0.20434788      -1.75038668       0.62010347       2.92809541       4.01674146       0.62010347       2.92809541       4.01674146
H       -0.18939206       0.61234642       0.88045260       1.45552949       1.00487851      -1.38125823       1.45552949       1.00487851      -1.38125823
H       -0.52723700      -0.66152877       0.41745315      -0.33969191      -0.13853875      -0.34170374      -0.33969191      -0.13853875      -0.34170374
H       -0.73078105      -0.61933196      -2.10591166      -0.57608633      -0.05423760       0.54450917      -0.57608633      -0.05423760       0.54450917
H       -0.52331986       1.08478943      -2.25689162       0.49905632      -0.70112205       0.02334718       0.49905632      -0.70112205       0.02334718
6
Properties=species:S:1:pos:R:3:REF_forces:R:3:forces:R:3 state=1 split=T T=T traj_n=14 frame_id=11 type=scan REF_energy=-2563.8582368452544 energy=-2563.8582368452544 pbc="F F F"
C       -0.66160039      -0.10814452       0.14921260       4.71401345       4.44262046      -4.75513178       4.71401345       4.44262046      -4.75513178
N       -0.88771525       0.04145211      -1.81056933      -4.06033787       3.34054854      -0.07514785      -4.06033787       3.34054854      -0.07514785
H       -0.11408101       0.81620681       0.64629847      -2.96641853       0.48421195       0.21562097      -2.96641853       0.48421195       0.21562097
H        0.16656932      -0.67531814       0.52132225       0.08033989      -3.81039643       0.82543955       0.08033989      -3.81039643       0.82543955
H       -0.11535510      -0.05017545      -2.49405763       2.05367044      -1.28879857       1.48830802       2.05367044      -1.28879857       1.48830802
H       -1.07358551       1.18597428      -2.09217175       0.17873262      -3.16818594       2.30091109       0.17873262      -3.16818594       2.30091109
6
Properties=species:S:1:pos:R:3:REF_forces:R:3:forces:R:3 state=1 split=T T=T traj_n=14 frame_id=13 type=scan REF_energy=-2563.851586178425 energy=-2563.851586178425 pbc="F F F"
C       -0.52235466      -0.11607006       0.23974516       2.85686405       4.79178653      -4.88455393       2.85686405       4.79178653      -4.88455393
N       -1.02773820       0.07351411      -1.86258325      -0.81227622       4.67417625       1.39242655      -0.81227622       4.67417625       1.39242655
H       -0.08845603       0.85579100       0.74296445      -2.87392500       0.05724415      -0.25367949      -2.87392500       0.05724415      -0.25367949
H        0.25075742      -0.74553098       0.55869832       0.42589106      -4.09825282       0.62393476       0.42589106      -4.09825282       0.62393476
H       -0.34852523      -0.12263940      -2.61727051       1.36458954      -2.26748942       0.75238797       1.36458954      -2.26748942       0.75238797
H       -0.94945125       1.26493043      -2.14151958      -0.96114343      -3.15746470       2.36948415      -0.96114343      -3.15746470       2.36948415
6
Properties=species:S:1:pos:R:3:REF_forces:R:3:forces:R:3 state=1 split=T T=T traj_n=14 frame_id=14 type=scan REF_energy=-2563.6658703953744 energy=-2563.6658703953744 pbc="F F F"
C       -0.43423068      -0.11771393       0.28636308       0.96240360       4.94176982      -3.89157697       0.96240360       4.94176982      -3.89157697
N       -1.09332702       0.08778974      -1.89325458       1.59251113       4.92392544       2.17641194       1.59251113       4.92392544       2.17641194
H       -0.08360113       0.88066261       0.79372330      -2.49429567      -0.19442658      -0.83750372      -2.49429567      -0.19442658      -0.83750372
H        0.29228639      -0.79075695       0.58699722       0.82040547      -4.22187903       0.18026186       0.82040547      -4.22187903       0.18026186
H       -0.45375651      -0.13419996      -2.67412023       0.67726004      -2.48135885       0.17667564       0.67726004      -2.48135885       0.17667564
H       -0.91313901       1.28421358      -2.17967420      -1.55828457      -2.96803081       2.19573125      -1.55828457      -2.96803081       2.19573125
6
Properties=species:S:1:pos:R:3:REF_forces:R:3:forces:R:3 state=1 split=T T=T traj_n=14 frame_id=15 type=scan REF_energy=-2563.380830215188 energy=-2563.380830215188 pbc="F F F"
C       -0.32963153      -0.11633105       0.33660242      -0.50157290       5.10076703      -2.07502567      -0.50157290       5.10076703      -2.07502567
N       -1.16661844       0.11267241      -1.92325235       3.15773711       4.97879589       1.73860462       3.15773711       4.97879589       1.73860462
H       -0.08148080       0.90484216       0.85156636      -1.96888649      -0.44021598      -1.31426472      -1.96888649      -0.44021598      -1.31426472
H        0.33358011      -0.84592092       0.61172825       1.21174134      -4.34002145      -0.19890085       1.21174134      -4.34002145      -0.19890085
H       -0.56686501      -0.14501793      -2.72364192       0.10922813      -2.44402214      -0.22409782       0.10922813      -2.44402214      -0.22409782
H       -0.87475228       1.29975043      -2.23296818      -2.00824719      -2.85530334       2.07368443      -2.00824719      -2.85530334       2.07368443
6
Properties=species:S:1:pos:R:3:REF_forces:R:3:forces:R:3 state=1 split=T T=T traj_n=14 frame_id=5 type=scan REF_energy=-2564.522918166023 energy=-2564.522918166023 pbc="F F F"
C       -0.47626183      -0.54230624      -0.35264488      -0.48825067      -1.31306097      -6.11695416      -0.48825067      -1.31306097      -6.11695416
N       -0.28174371       0.34764098      -1.63837674      -3.79368885      -0.77801768       2.99208209      -3.79368885      -0.77801768       2.99208209
H       -1.03019683       0.09546824       0.50654504       1.15860012       1.43204955       0.28028335       1.15860012       1.43204955       0.28028335
H        0.22022800      -0.21562846       0.50113049       0.32471477       1.26208099       1.43588635       0.32471477       1.26208099       1.43588635
H       -0.09419287       1.36986269      -1.66330429       0.77392655       0.10323571       0.28779251       0.77392655       0.10323571       0.28779251
H       -1.02360072       0.15495788      -2.43331503       2.02469807      -0.70628759       1.12090986       2.02469807      -0.70628759       1.12090986
6
Properties=species:S:1:pos:R:3:REF_forces:R:3:forces:R:3 state=1 split=T T=T traj_n=14 frame_id=7 type=scan REF_energy=-2563.6486177371676 energy=-2563.6486177371676 pbc="F F F"
C       -0.78973907      -0.28295493      -0.11189533       4.83576479       5.29137818      -2.81894383       4.83576479       5.29137818      -2.81894383
N       -0.49440657       0.08768376      -1.73408054      -5.32534114      -0.93018427      -0.21482744      -5.32534114      -0.93018427      -0.21482744
H       -0.53798290       0.64866177       0.59747243      -2.67361364       0.39015683      -0.54022344      -2.67361364       0.39015683      -0.54022344
H        0.13863558      -0.51536710       0.47349810       0.34064563      -3.46750348       0.18406180       0.34064563      -3.46750348       0.18406180
H        0.33549918       0.58830564      -2.10613997       1.09046467       0.46176003       1.81591774       1.09046467       0.46176003       1.81591774
H       -1.33777416       0.68366596      -2.19882010       1.73207969      -1.74560729       1.57401518       1.73207969      -1.74560729       1.57401518
6
Properties=species:S:1:pos:R:3:REF_forces:R:3:forces:R:3 state=1 split=T T=T traj_n=14 frame_id=9 type=scan REF_energy=-2563.643049683494 energy=-2563.643049683494 pbc="F F F"
C       -0.76269872      -0.13051556       0.04442915       6.71452354       4.60629230      -3.45450307       6.71452354       4.60629230      -3.45450307
N       -0.72644253       0.03308940      -1.76980506      -5.73982582       1.20556187      -0.62909516      -5.73982582       1.20556187      -0.62909516
H       -0.21464302       0.77030644       0.59735542      -3.36271439       0.85753391      -0.07900305      -3.36271439       0.85753391      -0.07900305
H        0.10856064      -0.61722365       0.49659604      -0.71825861      -3.96804178       0.40135244      -0.71825861      -3.96804178       0.40135244
H        0.13011232       0.12326986      -2.34690338       2.05386647      -0.12480358       1.84945290       2.05386647      -0.12480358       1.84945290
H       -1.22065665       1.03106861      -2.10163757       1.05240882      -2.57654271       1.91179594       1.05240882      -2.57654271       1.91179594
6
Properties=species:S:1:pos:R:3:REF_forces:R:3:forces:R:3 state=1 split=T T=T traj_n=158 frame_id=12 type=scan REF_energy=-2563.2463271232364 energy=-2563.2463271232364 pbc="F F F"
C       -0.33496651      -0.68783296      -0.25444966       2.47924454       0.19569716      -5.27793145       2.47924454       0.19569716      -5.27793145
N       -0.33716488       0.53116108      -1.63921284      -2.97925654       0.19894539       3.44696981      -2.97925654       0.19894539       3.44696981
H       -1.16085913      -0.46018280       0.45073328      -1.10100830       1.77965876       1.56336532      -1.10100830       1.77965876       1.56336532
H        0.32836748       0.09985625       0.52192399      -0.82184882       0.25208438       0.20047196      -0.82184882       0.25208438       0.20047196
H       -0.94644769       1.48393530      -1.52871712       1.78594153      -2.09087255      -0.11402090       1.78594153      -2.09087255      -0.11402090
H       -0.23469721       0.24305822      -2.63024306       0.63692759      -0.33551314       0.18114527       0.63692759      -0.33551314       0.18114527
6
Properties=species:S:1:pos:R:3:REF_forces:R:3:forces:R:3 state=1 split=T T=T traj_n=158 frame_id=14 type=scan REF_energy=-2562.9972404004475 energy=-2562.9972404004475 pbc="F F F"
C       -0.49182697      -0.66252927      -0.10199949       3.18310474       8.44550213      -1.50718675       3.18310474       8.44550213      -1.50718675
N       -0.31269483       0.48331903      -1.69078669       1.02959781       0.76712729       0.22010455       1.02959781       0.76712729       0.22010455
H       -1.29402103      -0.29561751       0.53315596      -2.33290279      -2.08830555       0.73146812      -2.33290279      -2.08830555       0.73146812
H        0.47551587      -0.01487994       0.46644441      -1.27045428      -3.06699692      -1.30928686      -1.27045428      -3.06699692      -1.30928686
H       -0.71742811       1.56036217      -1.61872804       0.28039245      -3.11586860       1.18583835       0.28039245      -3.11586860       1.18583835
H       -0.34531288       0.13934062      -2.66805157      -0.88973793      -0.94145834       0.67906260      -0.88973793      -0.94145834       0.67906260
6
Properties=species:S:1:pos:R:3:REF_forces:R:3:forces:R:3 state=1 split=T T=T traj_n=158 frame_id=5 type=scan REF_energy=-2565.5559019720745 energy=-2565.5559019720745 pbc="F F F"
C       -0.10603308      -0.53843596      -0.47726134       1.84458416       0.86120690      -5.28354515       1.84458416       0.86120690      -5.28354515
N       -0.43273315       0.49386710      -1.54069631      -1.54909545      -1.73783468       4.05370825      -1.54909545      -1.73783468       4.05370825
H       -0.94160513      -0.52127875       0.34459217      -0.38641096       1.75211666       1.11475255      -0.38641096       1.75211666       1.11475255
H        0.11475653       0.18354558       0.51766261      -1.45264781      -0.09685480       0.16597945      -1.45264781      -0.09685480       0.16597945
H       -1.15140342       1.28778412      -1.39719231       1.17505964      -0.68266430      -0.26879220       1.17505964      -0.68266430      -0.26879220
H       -0.16874970       0.30451300      -2.52707023       0.36851041      -0.09596978       0.21789709       0.36851041      -0.09596978       0.21789709
6
Properties=species:S:1:pos:R:3:REF_forces:R:3:forces:R:3 state=1 split=T T=T traj_n=158 frame_id=9 type=scan REF_energy=-2564.385004583985 energy=-2564.385004583985 pbc="F F F"
C       -0.18874630      -0.63147673      -0.38245738       2.43300414       0.59462817      -5.48213614       2.43300414       0.59462817      -5.48213614
N       -0.38383106       0.53675181      -1.58625509      -2.91338677      -1.24355193       4.13431382      -2.91338677      -1.24355193       4.13431382
H       -1.02349439      -0.53274944       0.38719590      -0.84392135       1.87454577       1.24298624      -0.84392135       1.87454577       1.24298624
H        0.19339157       0.16108881       0.53885905      -1.14461059       0.16688362       0.16653782      -1.14461059       0.16688362       0.16653782
H       -1.11415353       1.36579504      -1.46132751       1.85873368      -1.24755970      -0.25494499       1.85873368      -1.24755970      -0.25494499
H       -0.16893423       0.31058560      -2.57598038       0.61018088      -0.14494592       0.19324325       0.61018088      -0.14494592       0.19324325
6
Properties=species:S:1:pos:R:3:REF_forces:R:3:forces:R:3 state=1 split=T T=T traj_n=252 frame_id=10 type=scan REF_energy=-2563.2556151339268 energy=-2563.2556151339268 pbc="F F F"
C       -0.80007905       0.03783688      -0.16229065      -1.14250391      -1.09420502       0.12676407      -1.14250391      -1.09420502       0.12676407
N       -0.47822063       0.46937650      -1.72876398       2.41723973       1.02725861      -1.38858212       2.41723973       1.02725861      -1.38858212
H       -0.14436356       0.72933956       0.54153863      -0.25940073       0.36295676       0.50145508      -0.25940073       0.36295676       0.50145508
H       -0.16837360      -0.81850896       0.39523418       0.22315267       0.19932677      -0.61476597       0.22315267       0.19932677      -0.61476597
H       -0.38982532      -0.60168173      -2.27589230       1.89419378      -0.53525656       0.69549020       1.89419378      -0.53525656       0.69549020
H       -0.70490579       1.39363285      -1.84979129      -3.13268154       0.03991943       0.67963875      -3.13268154       0.03991943       0.67963875
6
Properties=species:S:1:pos:R:3:REF_forces:R:3:forces:R:3 state=1 split=T T=T traj_n=252 frame_id=11 type=scan REF_energy=-2564.846599118457 energy=-2564.846599118457 pbc="F F F"
C       -0.40723574      -0.21393014      -0.39487098      -1.09607777      -0.97546917       0.72875530      -1.09607777      -0.97546917       0.72875530
N       -0.68747026       0.43766174      -1.53961741       2.33601981       1.10560075      -1.32646695       2.33601981       1.10560075      -1.32646695
H       -0.85933070       0.15181655       0.56854498      -0.34100181       0.67484724       0.19358312      -0.34100181       0.67484724       0.19358312
H        0.49297340      -0.22492977       0.39829378       0.38575099      -0.25960769      -0.84856832       0.38575099      -0.25960769      -0.84856832
H       -1.59876597       0.36235308      -2.13363807       2.09230937      -0.40417127       0.75286800       2.09230937      -0.40417127       0.75286800
H        0.37406132       0.69702363      -1.97867772      -3.37700058      -0.14119986       0.49982884      -3.37700058      -0.14119986       0.49982884
6
Properties=species:S:1:pos:R:3:REF_forces:R:3:forces:R:3 state=1 split=T T=T traj_n=252 frame_id=12 type=scan REF_energy=-2565.0170706939334 energy=-2565.0170706939334 pbc="F F F"
C       -0.43536537      -0.18025476      -0.37120916      -0.71864024      -0.60621641       1.68292611      -0.71864024      -0.60621641       1.68292611
N       -0.70981410       0.41944496      -1.54635167       2.14370341       1.10249180      -1.61360504       2.14370341       1.10249180      -1.61360504
H       -0.83025675       0.24903529       0.58174313      -0.48342478       0.97118134      -0.12768836      -0.48342478       0.97118134      -0.12768836
H        0.50112855      -0.28283065       0.36848602       0.40927682      -0.93603888      -1.17456354       0.40927682      -0.93603888      -1.17456354
H       -1.58072469       0.25053563      -2.18783450       2.25145077      -0.32332896       0.79789998       2.25145077      -0.32332896       0.79789998