6
Properties=species:S:1:pos:R:3:REF_forces:R:3:forces:R:3 state=1 split=T T=T traj_n=102 frame_id=10 type=scan REF_energy=-2562.247502610893 energy=-2562.247502610893 pbc="F F F"
C       -0.39833628      -0.38340493      -0.14983203      -0.01290408       2.00025063       0.37486648      -0.01290408       2.00025063       0.37486648
N       -0.61651819       0.31393155      -1.67407764      -2.25276601      -0.73050497       1.25493735      -2.25276601      -0.73050497       1.25493735
H       -0.23452226       0.71351424       0.25621868      -0.37572784       0.10712717       0.45103507      -0.37572784       0.10712717       0.45103507
H        0.24306199      -0.82805626       0.95135783      -0.33533736       0.34530792      -3.80381803      -0.33533736       0.34530792      -3.80381803
H       -0.66955931       0.13899927      -2.67011780       2.26871716      -2.76310331      -0.81172002       2.26871716      -2.76310331      -0.81172002
H       -1.00989390       1.25501124      -1.79351444       0.70801813       1.04092257       2.53469915       0.70801813       1.04092257       2.53469915
6
Properties=species:S:1:pos:R:3:REF_forces:R:3:forces:R:3 state=1 split=T T=T traj_n=102 frame_id=12 type=scan REF_energy=-2562.0369974647024 energy=-2562.0369974647024 pbc="F F F"
C       -0.27835086      -0.34049408      -0.08437901       3.65802118       0.98617586       3.02960716       3.65802118       0.98617586       3.02960716
N       -0.59344413       0.32358659      -1.70840593      -2.78340905       1.04485139      -2.23495012      -2.78340905       1.04485139      -2.23495012
H       -0.32444595       0.79351301       0.21288908      -0.19088405      -1.52987350       0.54659106      -0.19088405      -1.52987350       0.54659106
H        0.30114251      -0.96578478       1.00186794      -1.66385403       0.05843562      -0.73360779      -1.66385403       0.05843562      -0.73360779
H       -0.86342370       0.11684217      -2.65612301       0.49289790      -2.29771178      -1.84565100       0.49289790      -2.29771178      -1.84565100
H       -0.92724581       1.28233217      -1.84581446       0.48722805       1.73812240       1.23801069       0.48722805       1.73812240       1.23801069
6
Properties=species:S:1:pos:R:3:REF_forces:R:3:forces:R:3 state=1 split=T T=T traj_n=102 frame_id=14 type=scan REF_energy=-2562.5330176460925 energy=-2562.5330176460925 pbc="F F F"
C       -0.15484897      -0.29107066      -0.01902180       2.75070574       0.51109245       3.72954557       2.75070574       0.51109245       3.72954557
N       -0.56706559       0.33207653      -1.75145448       0.55854085       0.77231335      -2.82266180       0.55854085       0.77231335      -2.82266180
H       -0.38099374       0.83880736       0.15579736       0.22893685      -1.58688645       1.20421214       0.22893685      -1.58688645       1.20421214
H        0.32092052      -1.07568282       1.05369656      -2.22115650       1.19903842      -2.19058515      -2.22115650       1.19903842      -2.19058515
H       -1.01429627       0.11506603      -2.62052050      -1.13156193      -2.62506412      -1.53372226      -1.13156193      -2.62506412      -1.53372226
H       -0.88948390       1.29079865      -1.89846255      -0.18546501       1.72950634       1.61321150      -0.18546501       1.72950634       1.61321150
6
Properties=species:S:1:pos:R:3:REF_forces:R:3:forces:R:3 state=1 split=T T=T traj_n=102 frame_id=3 type=scan REF_energy=-2565.384599164947 energy=-2565.384599164947 pbc="F F F"
C       -0.79789091      -0.35748488      -0.32360169      -1.50018203      -0.12123071      -2.30807018      -1.50018203      -0.12123071      -2.30807018
N       -0.52032706       0.35761186      -1.53288633      -0.25207675      -0.46589621       1.21582788      -0.25207675      -0.46589621       1.21582788
H       -0.56825159       0.49306835       0.50644321       1.85795150      -0.01504230       0.30337417       1.85795150      -0.01504230       0.30337417
H        0.16556066      -0.54722040       0.46280650      -0.42811777       1.06727667      -0.32254275      -0.42811777       1.06727667      -0.32254275
H        0.33650926       0.66248749      -2.02475147       0.91468365       0.43748812       0.92183991       0.91468365       0.43748812       0.92183991
H       -1.30136831       0.60153267      -2.16797563      -0.59225860      -0.90259556       0.18957097      -0.59225860      -0.90259556       0.18957097
6
Properties=species:S:1:pos:R:3:REF_forces:R:3:forces:R:3 state=1 split=T T=T traj_n=102 frame_id=4 type=scan REF_energy=-2564.8983133943134 energy=-2564.8983133943134 pbc="F F F"
C       -0.84559777      -0.23425717      -0.23646890      -0.99275625       0.98686665      -1.97434631      -0.99275625       0.98686665      -1.97434631
N       -0.53794722       0.34887879      -1.54391000      -0.26572083      -0.45137391       1.45847232      -0.26572083      -0.45137391       1.45847232
H       -0.32037032       0.59330519       0.46669752       0.84337724      -0.53162605       0.23462873       0.84337724      -0.53162605       0.23462873
H        0.07330803      -0.66189334       0.52902803       0.07862200       0.82626418      -0.94148723       0.07862200       0.82626418      -0.94148723
H        0.20012611       0.25617586      -2.25813571       1.33122119      -0.45008183       0.61476352       1.33122119      -0.45008183       0.61476352
H       -1.25528679       0.90778576      -2.03717636      -0.99474335      -0.38004903       0.60796897      -0.99474335      -0.38004903       0.60796897
6
Properties=species:S:1:pos:R:3:REF_forces:R:3:forces:R:3 state=1 split=T T=T traj_n=102 frame_id=5 type=scan REF_energy=-2564.44640667382 energy=-2564.44640667382 pbc="F F F"
C       -0.80399490      -0.23982638      -0.20286501      -0.19336719       1.36292374      -2.07066388      -0.19336719       1.36292374      -2.07066388
N       -0.55131557       0.33286821      -1.56347443      -0.21818978      -0.36166476       1.96059732      -0.21818978      -0.36166476       1.96059732
H       -0.24784479       0.62189514       0.42397942       0.20037053      -0.29703045       0.32879237       0.20037053      -0.29703045       0.32879237
H        0.08151366      -0.69074475       0.60825049      -0.07936863       0.52664249      -1.47750709      -0.07936863       0.52664249      -1.47750709
H        0.03898626       0.15617126      -2.38577418       1.34872727      -1.14865752       0.32676187       1.34872727      -1.14865752       0.32676187
H       -1.20311260       1.02963162      -1.96008169      -1.05817220      -0.08221350       0.93201940      -1.05817220      -0.08221350       0.93201940
6
Properties=species:S:1:pos:R:3:REF_forces:R:3:forces:R:3 state=1 split=T T=T traj_n=102 frame_id=6 type=scan REF_energy=-2564.0060833015723 energy=-2564.0060833015723 pbc="F F F"
C       -0.74306302      -0.27144008      -0.18484592       0.28102284       1.39624200      -2.39189315       0.28102284       1.39624200      -2.39189315
N       -0.56097071       0.32561866      -1.58481730      -0.15854395      -0.31818349       2.53611150      -0.15854395      -0.31818349       2.53611150
H       -0.21714393       0.63987986       0.38775497       0.01093070       0.06100435       0.40559352       0.01093070       0.06100435       0.40559352
H        0.10844382      -0.71133409       0.68643246      -0.41681706       0.39967151      -1.86915832      -0.41681706       0.39967151      -1.86915832
H       -0.11909793       0.11763511      -2.48543127       1.28105961      -1.66928526       0.08370614       1.28105961      -1.66928526       0.08370614
H       -1.15393617       1.10963563      -1.89905835      -0.99765214       0.13055089       1.23564032      -0.99765214       0.13055089       1.23564032
6
Properties=species:S:1:pos:R:3:REF_forces:R:3:forces:R:3 state=1 split=T T=T traj_n=102 frame_id=7 type=scan REF_energy=-2563.545136169512 energy=-2563.545136169512 pbc="F F F"
C       -0.66702203      -0.31334457      -0.17439843       0.28776624       1.33146412      -2.52764852       0.28776624       1.33146412      -2.52764852
N       -0.57692666       0.31807825      -1.60821989      -0.13063750      -0.28564419       2.94225204      -0.13063750      -0.28564419       2.94225204
H       -0.20622146       0.65479902       0.34987974       0.10013400       0.36825557       0.37236309       0.10013400       0.36825557       0.37236309
H        0.14560435      -0.72882628       0.76295267      -0.67709334       0.34310724      -2.16635809      -0.67709334       0.34310724      -2.16635809
H       -0.26684160       0.11548520      -2.56048309       1.34480767      -2.00902731      -0.13362737       1.34480767      -2.00902731      -0.13362737
H       -1.11436055       1.16380348      -1.84969641      -0.92497707       0.25184457       1.51301885      -0.92497707       0.25184457       1.51301885
6
Properties=species:S:1:pos:R:3:REF_forces:R:3:forces:R:3 state=1 split=T T=T traj_n=102 frame_id=8 type=scan REF_energy=-2563.0584726939555 energy=-2563.0584726939555 pbc="F F F"
C       -0.58108345      -0.35057408      -0.16835587       0.23410279       1.36766046      -2.12592810       0.23410279       1.36766046      -2.12592810
N       -0.58959483       0.31470930      -1.63214844      -0.36165576      -0.15919726       2.89945024      -0.36165576      -0.15919726       2.89945024
H       -0.20743085       0.66967793       0.31514685       0.16894894       0.50568538       0.21448116       0.16894894       0.50568538       0.21448116
H        0.18082567      -0.75198877       0.83624012      -0.82353113       0.23052348      -2.41165286      -0.82353113       0.23052348      -2.41165286
H       -0.40789882       0.12618832      -2.61663891       1.55081921      -2.27300459      -0.37882369       1.55081921      -2.27300459      -0.37882369
H       -1.08058567       1.20198240      -1.81420916      -0.76868404       0.32833252       1.80247324      -0.76868404       0.32833252       1.80247324
6
Properties=species:S:1:pos:R:3:REF_forces:R:3:forces:R:3 state=1 split=T T=T traj_n=139 frame_id=12 type=scan REF_energy=-2564.8061858482256 energy=-2564.8061858482256 pbc="F F F"
C       -0.67376999       0.14158604      -0.25327382      -1.19007709       1.39867663      -0.71055790      -1.19007709       1.39867663      -0.71055790
N       -0.43739870       0.36635278      -1.55776190       2.57421911      -4.27055201       3.12572453       2.57421911      -4.27055201       3.12572453
H       -0.28902278       0.81220442       0.61318604       0.51250470      -0.88575735      -0.22964072       0.51250470      -0.88575735      -0.22964072
H       -0.18602919      -0.80143189       0.23619772       0.51709376      -0.79147938       1.23798488       0.51709376      -0.79147938       1.23798488
H       -0.32408366      -0.43969976      -2.16845877       0.30519263      -0.51832901      -0.52045748       0.30519263      -0.51832901      -0.52045748
H       -0.77546363       1.13098350      -1.94985468      -2.71893312       5.06744112      -2.90305331      -2.71893312       5.06744112      -2.90305331
6
Properties=species:S:1:pos:R:3:REF_forces:R:3:forces:R:3 state=1 split=T T=T traj_n=139 frame_id=14 type=scan REF_energy=-2564.3277232286227 energy=-2564.3277232286227 pbc="F F F"
C       -0.52647447       0.15284620      -0.24095704      -1.47082244       1.77688451      -1.19815430      -1.47082244       1.77688451      -1.19815430
N       -0.41752218       0.36267062      -1.56552515       3.51673039      -5.60106205       3.55403954       3.51673039      -5.60106205       3.55403954
H       -0.33628131       0.90652110       0.60918063       0.83706350      -0.84112836       0.24182099       0.83706350      -0.84112836       0.24182099
H       -0.19789126      -0.87115566       0.19947238       0.36748703      -1.01536866       1.40466226       0.36748703      -1.01536866       1.40466226
H       -0.44041130      -0.45902566      -2.15855207       0.33986931      -0.64245690      -0.77548578       0.33986931      -0.64245690      -0.77548578
H       -0.76718742       1.11813850      -1.92358415      -3.59032779       6.32313147      -3.22688272      -3.59032779       6.32313147      -3.22688272
6
Properties=species:S:1:pos:R:3:REF_forces:R:3:forces:R:3 state=1 split=T T=T traj_n=166 frame_id=11 type=scan REF_energy=-2564.099732211762 energy=-2564.099732211762 pbc="F F F"
C       -0.48207675      -0.17067887      -0.15621533      -0.02132284       3.79293043       1.77827994      -0.02132284       3.79293043       1.77827994
N       -0.59593642       0.28885907      -1.71015767      -0.57869721       0.19629206      -0.91113023      -0.57869721       0.19629206      -0.91113023
H       -0.25590322       0.79869159       0.58146829      -2.12111076      -0.43567089      -1.38749462      -2.12111076      -0.43567089      -1.38749462
H        0.07232173      -0.73389595       0.55722579       1.58196002      -2.54454440      -1.19567572       1.58196002      -2.54454440      -1.19567572
H       -0.83942430      -0.33216013      -2.54657130       0.07437033       0.66004230       1.65634020       0.07437033       0.66004230       1.65634020
H       -0.58474898       1.35917939      -1.80571519       1.06480046      -1.66904950       0.05968043       1.06480046      -1.66904950       0.05968043
6
Properties=species:S:1:pos:R:3:REF_forces:R:3:forces:R:3 state=1 split=T T=T traj_n=166 frame_id=13 type=scan REF_energy=-2564.5315038644453 energy=-2564.5315038644453 pbc="F F F"
C       -0.30990505      -0.15316705      -0.13809744      -1.59451342       5.01648661       1.69075991      -1.59451342       5.01648661       1.69075991
N       -0.65039772       0.29325127      -1.73120329       0.08977908       0.62980676      -0.54267246       0.08977908       0.62980676      -0.54267246
H       -0.31884449       0.84766991       0.59813844      -1.31818296      -1.48032986      -2.00890356      -1.31818296      -1.48032986      -2.00890356
H        0.11783841      -0.79754160       0.55765392       1.99930129      -2.89481542      -0.63142314       1.99930129      -2.89481542      -0.63142314
H       -1.04203381      -0.33427416      -2.51067806       0.20576779       0.81018375       1.69257178       0.20576779       0.81018375       1.69257178
H       -0.48242530       1.35405672      -1.85577897       0.61784822      -2.08133183      -0.20033253       0.61784822      -2.08133183      -0.20033253
6
Properties=species:S:1:pos:R:3:REF_forces:R:3:forces:R:3 state=1 split=T T=T traj_n=166 frame_id=7 type=scan REF_energy=-2564.7403565747295 energy=-2564.7403565747295 pbc="F F F"
C       -0.75251748      -0.06280452      -0.18152737      -0.32926761       1.11639921      -4.89271849      -0.32926761       1.11639921      -4.89271849
N       -0.52690355       0.31446896      -1.62682982      -0.31854063       0.44906293       3.44565591      -0.31854063       0.44906293       3.44565591
H       -0.11173049       0.69056294       0.55482928       0.11425961       0.05506887      -0.31985953       0.11425961       0.05506887      -0.31985953
H       -0.10390317      -0.68224469       0.48474486       0.65130827      -0.59849902       0.49445776       0.65130827      -0.59849902       0.49445776
H       -0.31314701      -0.33565744      -2.43663251      -0.34757665       0.16120041       1.13247395      -0.34757665       0.16120041       1.13247395
H       -0.87756623       1.28566984      -1.87454985       0.22981700      -1.18323241       0.13999040       0.22981700      -1.18323241       0.13999040
6
Properties=species:S:1:pos:R:3:REF_forces:R:3:forces:R:3 state=1 split=T T=T traj_n=166 frame_id=8 type=scan REF_energy=-2564.5304122361567 energy=-2564.5304122361567 pbc="F F F"
C       -0.69643667      -0.10063942      -0.17414021      -1.26036678       1.19076309      -5.80326332      -1.26036678       1.19076309      -5.80326332
N       -0.53712544       0.30412806      -1.64892163       0.02911701       0.28323951       3.97138905       0.02911701       0.28323951       3.97138905
H       -0.14153374       0.72194013       0.56024821       0.39583454       0.24648144      -0.08047919       0.39583454       0.24648144      -0.08047919
H       -0.05880412      -0.68991094       0.50722472       0.95384025      -0.61243258       0.55276958       0.95384025      -0.61243258       0.55276958
H       -0.44818398      -0.34338196      -2.48681093      -0.23314951       0.23748749       1.26962008      -0.23314951       0.23748749       1.26962008
H       -0.80368400       1.31785923      -1.83756557       0.11472448      -1.34553896       0.08996380       0.11472448      -1.34553896       0.08996380
6
Properties=species:S:1:pos:R:3:REF_forces:R:3:forces:R:3 state=1 split=T T=T traj_n=18 frame_id=10 type=scan REF_energy=-2565.7048952359296 energy=-2565.7048952359296 pbc="F F F"
C       -0.27383144      -0.31095977      -0.46664011      -1.04727022       5.96862780       5.79170023      -1.04727022       5.96862780       5.79170023
N       -0.64845344       0.40928582      -1.58524453       1.11498471      -3.94772686      -3.54881563       1.11498471      -3.94772686      -3.54881563
H       -0.99526628      -0.38503046       0.40894528      -2.19414917      -3.24487839      -1.82834287      -2.19414917      -3.24487839      -1.82834287
H        0.38390094       0.03071901       0.62455994       2.05185713      -0.50095348      -3.40980124       2.05185713      -0.50095348      -3.40980124
H       -0.85465812       1.41160397      -1.45234225       1.13329829       0.39047657       0.20291931       1.13329829       0.39047657       0.20291931
H       -0.29745962       0.05437653      -2.60924374      -1.05872073       1.33445436       2.79234020      -1.05872073       1.33445436       2.79234020
6
Properties=species:S:1:pos:R:3:REF_forces:R:3:forces:R:3 state=1 split=T T=T traj_n=18 frame_id=15 type=scan REF_energy=-2566.9389416113668 energy=-2566.9389416113668 pbc="F F F"
C       -0.40361034      -0.04463491      -0.31979847       1.68757593       0.22888530       2.37900433       1.68757593       0.22888530       2.37900433
N       -0.68692637       0.46373300      -1.59844237       0.27301823      -2.91853446      -0.79806574       0.27301823      -2.91853446      -0.79806574
H       -1.08628164       0.06447615       0.53488277      -2.39852453      -1.78680260      -0.60287507      -2.39852453      -1.78680260      -0.60287507
H        0.58042564      -0.43353867       0.56127686      -0.59777423       2.08178293      -3.13847675      -0.59777423       2.08178293      -3.13847675
H       -0.34469418       1.42460336      -1.71305627       1.96126907      -0.20924561      -1.02838112       1.96126907      -0.20924561      -1.02838112
H       -0.74468106      -0.26464384      -2.54482792      -0.92556447       2.60391443       3.18879434      -0.92556447       2.60391443       3.18879434
6
Properties=species:S:1:pos:R:3:REF_forces:R:3:forces:R:3 state=1 split=T T=T traj_n=18 frame_id=6 type=scan REF_energy=-2565.502032173486 energy=-2565.502032173486 pbc="F F F"
C       -0.15618754      -0.38301396      -0.52005841       1.91606099      -2.12190688      -3.68163820       1.91606099      -2.12190688      -3.68163820
N       -0.59628122       0.39108377      -1.55614986       1.67430859       0.36828434       1.49098820       1.67430859       0.36828434       1.49098820
H       -0.91213658      -0.47169999       0.36850787       0.09628820       1.28701638       1.43440446       0.09628820       1.28701638       1.43440446
H        0.21779515       0.16727466       0.57190981      -2.17702666       0.24139475      -0.40235775      -2.17702666       0.24139475      -0.40235775
H       -1.04722699       1.30879105      -1.38640918      -0.41114496       0.22332926      -0.58484553      -0.41114496       0.22332926      -0.58484553
H       -0.19173077       0.19755957      -2.55776564      -1.09848615       0.00188216       1.74344883      -1.09848615       0.00188216       1.74344883
6
Properties=species:S:1:pos:R:3:REF_forces:R:3:forces:R:3 state=1 split=T T=T traj_n=2110 frame_id=11 type=scan REF_energy=-2564.4390995840045 energy=-2564.4390995840045 pbc="F F F"
C       -0.76097881      -0.05982564      -0.15123036       0.25286287       0.84577024      -3.90435398       0.25286287       0.84577024      -3.90435398
N       -0.85030768       0.07202424      -1.53262236      -1.23387973       2.95718608       1.94208335      -1.23387973       2.95718608       1.94208335
H       -0.18818742       0.84319455       0.36604127      -0.00447313      -0.19774109       0.25168777      -0.00447313      -0.19774109       0.25168777
H        0.14006829      -0.61326135       0.27361979       0.69153725      -0.89279561       1.28752351       0.69153725      -0.89279561       1.28752351
H       -0.15898112      -0.19918196      -2.23650065       1.02629223      -0.98487351      -0.03246429       1.02629223      -0.98487351      -0.03246429
H       -0.86738120       1.16704525      -1.79927310      -0.73233949      -1.72754612       0.45552364      -0.73233949      -1.72754612       0.45552364
6
Properties=species:S:1:pos:R:3:REF_forces:R:3:forces:R:3 state=1 split=T T=T traj_n=2110 frame_id=13 type=scan REF_energy=-2564.3059177463433 energy=-2564.3059177463433 pbc="F F F"
C       -0.68464894      -0.06640995      -0.13565352      -1.15760156       1.03193150      -4.19690293      -1.15760156       1.03193150      -4.19690293
N       -0.91451238       0.07713671      -1.50912749      -0.55267994       2.03007867       2.48646915      -0.55267994       2.03007867       2.48646915
H       -0.22431718       0.89591959       0.37320503       0.08108000       0.04103905       0.83436310       0.08108000       0.04103905       0.83436310
H        0.20956881      -0.64313662       0.23137637       1.21028187      -0.53458602       0.71880009       1.21028187      -0.53458602       0.71880009
H       -0.31698684      -0.23473088      -2.27434599       0.74666023      -1.11551329      -0.59931764       0.74666023      -1.11551329      -0.59931764
H       -0.75487143       1.18121624      -1.76541980      -0.32774060      -1.45294990       0.75658824      -0.32774060      -1.45294990       0.75658824
6
Properties=species:S:1:pos:R:3:REF_forces:R:3:forces:R:3 state=1 split=T T=T traj_n=2110 frame_id=15 type=scan REF_energy=-2564.5449661997127 energy=-2564.5449661997127 pbc="F F F"
C       -0.58111200      -0.05215449      -0.12710623       0.53439901       2.27334031       1.73943815       0.53439901       2.27334031       1.73943815
N       -0.96771421       0.09196825      -1.47543694      -1.36432892       1.82640395      -1.96014791      -1.36432892       1.82640395      -1.96014791
H       -0.27952550       0.95614872       0.39806711      -1.22137491      -0.72298644       0.85661863      -1.22137491      -0.72298644       0.85661863
H        0.26996541      -0.69604443       0.18507576       1.21518147      -0.31283808      -0.72527056       1.21518147      -0.31283808      -0.72527056
H       -0.47780559      -0.26166842      -2.29281872       0.02832022      -1.43934896      -1.17551973       0.02832022      -1.43934896      -1.17551973
H       -0.64957606       1.17174547      -1.76774640       0.80780313      -1.62457079       1.26488142       0.80780313      -1.62457079       1.26488142
6
Properties=species:S:1:pos:R:3:REF_forces:R:3:forces:R:3 state=1 split=T T=T traj_n=2110 frame_id=7 type=scan REF_energy=-2564.813798437551 energy=-2564.813798437551 pbc="F F F"
C       -0.87306416      -0.06464630      -0.21330608       0.28942413       0.90609261      -1.98255301       0.28942413       0.90609261      -1.98255301
N       -0.67764533       0.09065329      -1.56302974      -1.14060640       2.81184447       0.57524797      -1.14060640       2.81184447       0.57524797
H       -0.23762463       0.73975459       0.41135898      -0.18020402      -0.52158904      -0.15799772      -0.18020402      -0.52158904      -0.15799772
H        0.02661854      -0.57245641       0.33336486       0.63281626      -0.73350309       1.03290492       0.63281626      -0.73350309       1.03290492
H        0.20017208       0.00686300      -2.09589137       0.61474667      -0.76144584       0.13888939       0.61474667      -0.76144584       0.13888939
H       -1.12422444       1.00982692      -1.95246207      -0.21617662      -1.70139912       0.39350845      -0.21617662      -1.70139912       0.39350845
6
Properties=species:S:1:pos:R:3:REF_forces:R:3:forces:R:3 state=1 split=T T=T traj_n=2110 frame_id=9 type=scan REF_energy=-2564.5839561049274 energy=-2564.5839561049274 pbc="F F F"
C       -0.82275258      -0.04877743      -0.17355508       1.18869602       1.08120617      -3.00745266       1.18869602       1.08120617      -3.00745266
N       -0.78009120       0.07931116      -1.54842414      -1.52656054       2.98545925       1.20683778      -1.52656054       2.98545925       1.20683778
H       -0.17851186       0.79211208       0.37768064      -0.45004026      -0.36160301      -0.01428438      -0.45004026      -0.36160301      -0.01428438
H        0.07500558      -0.59353649       0.30513163       0.45907761      -1.06818532       1.26295302       0.45907761      -1.06818532       1.26295302
H       -0.00624766      -0.14714673      -2.18402834       0.84612727      -0.87713109       0.15205073       0.84612727      -0.87713109       0.15205073
H       -0.97317022       1.12803251      -1.85677011      -0.51730011      -1.75974600       0.39989552      -0.51730011      -1.75974600       0.39989552
6
Properties=species:S:1:pos:R:3:REF_forces:R:3:forces:R:3 state=1 split=T T=T traj_n=2116 frame_id=8 type=scan REF_energy=-2565.169436724731 energy=-2565.169436724731 pbc="F F F"
C       -0.85183335       0.04974460      -0.22055403       0.48231407       1.14688345      -1.78600703       0.48231407       1.14688345      -1.78600703
N       -0.58376815       0.28744066      -1.55298180      -0.96660366       1.33373129       0.97126107      -0.96660366       1.33373129       0.97126107
H       -0.16870860       0.70353359       0.51352989      -0.14494517      -0.58485230      -0.34885423      -0.14494517      -0.58485230      -0.34885423
H       -0.12845665      -0.70970722       0.33535543       0.16988539      -0.53473705       0.67815536       0.16988539      -0.53473705       0.67815536
H        0.11447090      -0.22841618      -2.11284271       0.19420847      -0.07767559       0.01478380       0.19420847      -0.07767559       0.01478380
H       -1.06747209       1.10739964      -2.04247218       0.26514090      -1.28334981       0.47066103       0.26514090      -1.28334981       0.47066103
6
Properties=species:S:1:pos:R:3:REF_forces:R:3:forces:R:3 state=1 split=T T=T traj_n=217 frame_id=10 type=scan REF_energy=-2563.786500088698 energy=-2563.786500088698 pbc="F F F"
C       -0.65876666       0.28988580      -0.20767416      -0.77158260       0.73805379      -2.90053694      -0.77158260       0.73805379      -2.90053694
N       -0.68326982       0.29684442      -1.66740612       0.56126468       3.54944885       2.62436634       0.56126468       3.54944885       2.62436634
H       -0.15911410       0.67766470       0.90016287      -0.23788084      -0.17089669      -2.02473865      -0.23788084      -0.17089669      -2.02473865
H       -0.23233716      -0.72101199       0.28552472       0.43362568      -0.50219196       0.38564538       0.43362568      -0.50219196       0.38564538
H       -0.38848481      -0.61105990      -2.02982470       0.14292169      -0.29923954      -0.70401225       0.14292169      -0.29923954      -0.70401225
H       -0.56379539       1.27767208      -2.36074802      -0.12834862      -3.31517446       2.61927612      -0.12834862      -3.31517446       2.61927612
6
Properties=species:S:1:pos:R:3:REF_forces:R:3:forces:R:3 state=1 split=T T=T traj_n=217 frame_id=12 type=scan REF_energy=-2563.32778390389 energy=-2563.32778390389 pbc="F F F"
C       -0.50485751       0.29204020      -0.19985245      -0.85210247       0.65837312      -2.62457438      -0.85210247       0.65837312      -2.62457438
N       -0.76390142       0.30513431      -1.66462492       0.61304135       3.84324226       2.17111583       0.61304135       3.84324226       2.17111583
H       -0.17822176       0.72630602       0.96776188      -0.43084118      -0.12242285      -1.98674771      -0.43084118      -0.12242285      -1.98674771
H       -0.21032031      -0.77228473       0.26930718       0.56684003      -0.41469133       0.19147649       0.56684003      -0.41469133       0.19147649
H       -0.48546031      -0.60547642      -2.02150637       0.19382396      -0.66242952      -0.78040582       0.19382396      -0.66242952      -0.78040582
H       -0.54300664       1.26427572      -2.43105072      -0.09076169      -3.30207168       3.02913559      -0.09076169      -3.30207168       3.02913559
6
Properties=species:S:1:pos:R:3:REF_forces:R:3:forces:R:3 state=1 split=T T=T traj_n=217 frame_id=14 type=scan REF_energy=-2563.083261488378 energy=-2563.083261488378 pbc="F F F"
C       -0.37188177       0.24857246      -0.18840224      -0.60324677       1.29488957      -1.62039870      -0.60324677       1.29488957      -1.62039870
N       -0.82814828       0.30986468      -1.63338964       0.42431438       3.85272378       1.55970862       0.42431438       3.85272378       1.55970862
H       -0.21088644       0.81091152       0.97515492      -0.81452342      -0.60934777      -2.18392567      -0.81452342      -0.60934777      -2.18392567
H       -0.17041195      -0.84790156       0.24591853       0.83670721      -0.21569765       0.01005666       0.83670721      -0.21569765       0.01005666
H       -0.52338824      -0.57753075      -2.01465393      -0.06954641      -1.15275907      -0.98738122      -0.06954641      -1.15275907      -0.98738122