6
Properties=species:S:1:pos:R:3:REF_forces:R:3:x_forces:R:3:cas_forces:R:3:forces:R:3 state=1 data_path=dataset_delta/casscf_2nd_part/CAS_grad_x_points_with_old_xyz.json name=00009-0K_run99_step79 REF_energy=-4.755039258644501 x_energy=-2569.4787866863503 cas_energy=-2564.723747427706 energy=-2564.723747427706 pbc="F F F"
C       -2.85847080       0.33752440       0.23598640       0.43837785      -0.67859873      -0.29805397       3.23540869      -1.73069781      -2.22457282       2.79703084      -1.05209908      -1.92651885       2.79703084      -1.05209908      -1.92651885
N       -0.83551480       0.11023840      -0.00905990       0.00713776       0.17198179      -0.15253789       1.77716196       4.41552584       3.69936958       1.77002420       4.24354405       3.85190747       1.77002420       4.24354405       3.85190747
H       -3.25280120       0.58233610       1.14076960      -0.29423376       0.30659151       0.36354433      -1.21953767       1.36743443       3.44494363      -0.92530391       1.06084292       3.08139930      -0.92530391       1.06084292       3.08139930
H       -3.39472960      -0.34802710      -0.39728830      -0.04909639       0.21908868      -0.01257169      -0.52607207      -0.46080106      -1.04929386      -0.47697568      -0.67988974      -1.03672217      -0.47697568      -0.67988974      -1.03672217
H       -0.57478790      -0.72954390      -0.44873510      -0.07660288       0.02197036       0.07461542      -0.00290679      -2.86834918      -0.67352382       0.07369609      -2.89031954      -0.74813924       0.07369609      -2.89031954      -0.74813924
H       -0.07049730       0.21121140       1.01991030      -0.02547491      -0.04106144       0.02497263      -3.26394644      -0.72314004      -3.19695388      -3.23847153      -0.68207860      -3.22192651      -3.23847153      -0.68207860      -3.22192651
6
Properties=species:S:1:pos:R:3:REF_forces:R:3:x_forces:R:3:cas_forces:R:3:forces:R:3 state=1 data_path=dataset_delta/casscf_2nd_part/CAS_grad_x_points_with_old_xyz.json name=00107-5K_run81_step296 REF_energy=-4.836643896227542 x_energy=-2565.8653191442345 cas_energy=-2561.028675248007 energy=-2561.028675248007 pbc="F F F"
C       -3.83698870       0.47442820       0.32102110      -0.06978996      -0.13468385       0.03797535      -5.22818908      -0.39338030      -2.48066233      -5.15839912      -0.25869645      -2.51863768      -5.15839912      -0.25869645      -2.51863768
N        0.04582490       0.10061560       0.09421310       0.02323650      -0.45094785      -0.42477516       2.83381756      -2.80494140      -4.47989285       2.81058106      -2.35399355      -4.05511769       2.81058106      -2.35399355      -4.05511769
H       -3.59836800      -0.52524850       0.56454770       0.00580283       0.08921322      -0.00086949       1.86483309      -1.55000848       1.14446901       1.85903026      -1.63922170       1.14533850       1.85903026      -1.63922170       1.14533850
H       -5.08354560       0.24799250      -0.22921380       0.16962792       0.04784664      -0.01234839       3.49700267       1.90344196       1.33631035       3.32737475       1.85559532       1.34865874       3.32737475       1.85559532       1.34865874
H       -0.28642520      -0.98129910       0.11984450      -0.11174889       0.18907308       0.26909316      -0.15268883       2.44259807       0.99124689      -0.04093994       2.25352499       0.72215373      -0.04093994       2.25352499       0.72215373
H        0.90823610       0.31808820      -0.87671270      -0.01706295       0.25835283       0.13439448      -2.81470995       0.40114421       3.49199889      -2.79764700       0.14279138       3.35760441      -2.79764700       0.14279138       3.35760441
6
Properties=species:S:1:pos:R:3:REF_forces:R:3:x_forces:R:3:cas_forces:R:3:forces:R:3 state=1 data_path=dataset_delta/casscf_2nd_part/CAS_grad_x_points_with_old_xyz.json name=00316-0K_run28_step307 REF_energy=-5.35228045107624 x_energy=-2568.847607310464 cas_energy=-2563.4953268593877 energy=-2563.4953268593877 pbc="F F F"
C       -2.46553210       0.12810660      -0.05787110       0.03662609       0.29161242       0.05406604       6.92965293       0.28641731      -5.51906438       6.89302684      -0.00519511      -5.57313042       6.89302684      -0.00519511      -5.57313042
N       -1.14227630       0.44281820       0.37431260      -0.35871985      -0.20950088      -0.21563450       3.56726372      -1.04899017      -4.12973886       3.92598357      -0.83948929      -3.91410436       3.92598357      -0.83948929      -3.91410436
H       -2.75380260       0.39063980      -1.09187030       0.09099401      -0.09376816       0.14810845      -0.63376875       0.82360611       0.29105939      -0.72476276       0.91737427       0.14295094      -0.72476276       0.91737427       0.14295094
H       -2.89901620      -0.26130370       0.68887230       0.09346815      -0.05857396      -0.05068023      -5.42919661      -3.13630715       6.09076968      -5.52266476      -3.07773319       6.14144991      -5.52266476      -3.07773319       6.14144991
H       -0.14814520      -0.09421330      -0.31041590      -0.01224320      -0.07455960       0.02729905      -2.38371877       2.25501859       3.15712378      -2.37147557       2.32957819       3.12982473      -2.37147557       2.32957819       3.12982473
H       -1.60923080      -0.87761070      -0.29045130       0.14989026       0.14473854       0.03698686      -2.05021705       0.82020367       0.10999607      -2.20010731       0.67546513       0.07300921      -2.20010731       0.67546513       0.07300921
6
Properties=species:S:1:pos:R:3:REF_forces:R:3:x_forces:R:3:cas_forces:R:3:forces:R:3 state=1 data_path=dataset_delta/casscf_2nd_part/CAS_grad_x_points_with_old_xyz.json name=00146-5K_run65_step91 REF_energy=-5.118644789551581 x_energy=-2566.9719644489123 cas_energy=-2561.8533196593607 energy=-2561.8533196593607 pbc="F F F"
C       -3.11006080       0.39617960       0.29632460      -0.50736942       0.20622745       0.36039122       2.53873409       1.77359348      -3.42501378       3.04610351       1.56736603      -3.78540500       3.04610351       1.56736603      -3.78540500
N       -0.70346700       0.01624110       0.03185800       0.37053419      -0.08899668      -0.13287266      -1.17777910      -6.01704699       8.66684000      -1.54831329      -5.92805031       8.79971266      -1.54831329      -5.92805031       8.79971266
H       -2.86324850       1.50181560       0.80936520       0.21566141      -0.11109071      -0.05123929      -0.79197409      -2.79494762      -0.26791036      -1.00763550      -2.68385691      -0.21667107      -1.00763550      -2.68385691      -0.21667107
H       -2.76635790      -0.25632730      -0.86856900       0.26378223      -0.06128951      -0.25065136      -1.24743666       0.88777242       4.13446733      -1.51121889       0.94906193       4.38511869      -1.51121889       0.94906193       4.38511869
H       -0.72563990       0.38227400      -0.76010710      -0.20991837      -0.05196349      -0.08106862       0.51931449       5.37439344      -9.64268721       0.72923286       5.42635693      -9.56161859       0.72923286       5.42635693      -9.56161859
H       -0.00820620       0.26422080       0.72378670      -0.13195116       0.10717477       0.15561786       0.15988015       0.77629709       0.53448117       0.29183131       0.66912232       0.37886331       0.29183131       0.66912232       0.37886331
6
Properties=species:S:1:pos:R:3:REF_forces:R:3:x_forces:R:3:cas_forces:R:3:forces:R:3 state=1 data_path=dataset_delta/casscf_2nd_part/CAS_grad_x_points_with_old_xyz.json name=00274-5K_run15_step161 REF_energy=-5.029537034375153 x_energy=-2566.1733720517327 cas_energy=-2561.1438350173576 energy=-2561.1438350173576 pbc="F F F"
C       -2.50091680       0.11503940       0.08204600       0.09296270       0.24049821       0.02549167       3.90564987       1.51603166      -4.33435184       3.81268717       1.27553345      -4.35984351       3.81268717       1.27553345      -4.35984351
N       -1.09713090       0.29204030      -0.14779920      -0.54139793      -0.33503022       0.16632217      -3.31977404       0.23296819       1.38181276      -2.77837611       0.56799841       1.21549059      -2.77837611       0.56799841       1.21549059
H       -3.20894820       0.62591060       4.83928650       0.00045223      -0.00060753      -0.00370216       0.00238048      -0.00176239      -0.00974284       0.00192825      -0.00115486      -0.00604068       0.00192825      -0.00115486      -0.00604068
H       -2.88731990       1.04029000      -0.63995740       0.10406571      -0.04322049      -0.04684358      -0.74146414      -1.45838171       2.31370428      -0.84552985      -1.41516122       2.36054786      -0.84552985      -1.41516122       2.36054786
H       -0.13392180      -0.00711530      -0.21111040       0.05072490       0.14270422       0.07980759       1.09431692      -0.97581914      -0.72583533       1.04359202      -1.11852336      -0.80564292       1.04359202      -1.11852336      -0.80564292
H       -1.95689200      -0.26909240       1.04845020       0.29403104      -0.00393519      -0.22179374      -0.94027044       0.68737240       1.37369491      -1.23430148       0.69130759       1.59548865      -1.23430148       0.69130759       1.59548865
6
Properties=species:S:1:pos:R:3:REF_forces:R:3:x_forces:R:3:cas_forces:R:3:forces:R:3 state=1 data_path=dataset_delta/casscf_2nd_part/CAS_grad_x_points_with_old_xyz.json name=00114-0K_run89_step190 REF_energy=-4.9507579841501865 x_energy=-2568.6835222658456 cas_energy=-2563.7327642816954 energy=-2563.7327642816954 pbc="F F F"
C       -3.13145020       0.41421200       0.24429760       0.56305570       0.14908340       0.55139550      -0.70372971       0.37064594      -6.31038942      -1.26678541       0.22156254      -6.86178492      -1.26678541       0.22156254      -6.86178492
N       -0.58662880       0.01308630       0.11998810      -0.45645800       0.33885421      -0.33266545      -1.83838765       1.01727987      -4.67671529      -1.38192965       0.67842566      -4.34404984      -1.38192965       0.67842566      -4.34404984
H       -3.54507720       0.59338790      -0.93230880      -0.18218444      -0.07581066      -0.40975273       1.51835706      -0.30999305       3.52539768       1.70054150      -0.23418239       3.93515041       1.70054150      -0.23418239       3.93515041
H       -3.05976560       0.21044270       1.25238070      -0.15746135      -0.15084348      -0.03204520       0.24557189      -0.47477141       3.14678821       0.40303324      -0.32392793       3.17883341       0.40303324      -0.32392793       3.17883341
H       -0.26796510       1.02980400       0.04942820       0.11822895      -0.11243890       0.15195896       0.32960414      -0.89382968       0.41107263       0.21137519      -0.78139078       0.25911367       0.21137519      -0.78139078       0.25911367
H       -0.57237650      -0.24390930      -1.07530160       0.11496352      -0.14893882       0.07113501       0.44872865       0.29057407       3.90387227       0.33376513       0.43951289       3.83273726       0.33376513       0.43951289       3.83273726
6
Properties=species:S:1:pos:R:3:REF_forces:R:3:x_forces:R:3:cas_forces:R:3:forces:R:3 state=1 data_path=dataset_delta/casscf_2nd_part/CAS_grad_x_points_with_old_xyz.json name=00567-fromIvanD REF_energy=-5.034981871273885 x_energy=-2567.2495442776008 cas_energy=-2562.214562406327 energy=-2562.214562406327 pbc="F F F"
C       -3.61580700      -0.03027140       0.51907790      -0.22128358       0.09057297       0.15467282       2.20044554      -4.30066381      -2.36792412       2.42172912      -4.39123678      -2.52259694       2.42172912      -4.39123678      -2.52259694
N        0.16013590      -0.18814560      -0.39673840       0.36293363       0.23246645       0.46296636      -1.17653972      -1.42758081       1.02685312      -1.53947335      -1.66004726       0.56388676      -1.53947335      -1.66004726       0.56388676
H       -4.20075310      -1.21510580       0.32025350       0.27368539       0.08257252      -0.07424215       0.47267833       3.58259423       1.10541755       0.19899294       3.50002171       1.17965970       0.19899294       3.50002171       1.17965970
H       -2.44868240       0.31080560       0.19123080       0.16721528      -0.18497364      -0.13831833      -2.01680792       0.55958604       1.00505942      -2.18402320       0.74455968       1.14337775      -2.18402320       0.74455968       1.14337775
H        0.35016320       0.83318070      -0.36513420      -0.34575549       0.11704423      -0.26410839       1.03248065      -0.47017973       0.20265385       1.37823614      -0.58722396       0.46676224       1.37823614      -0.58722396       0.46676224
H        0.76370860      -0.96093510       0.09308720      -0.23756320      -0.33808774      -0.14158014      -0.51302485       2.05583887      -0.97266964      -0.27546165       2.39392661      -0.83108950      -0.27546165       2.39392661      -0.83108950
6
Properties=species:S:1:pos:R:3:REF_forces:R:3:x_forces:R:3:cas_forces:R:3:forces:R:3 state=1 data_path=dataset_delta/casscf_2nd_part/CAS_grad_x_points_with_old_xyz.json name=00110-5K_run63_step316 REF_energy=-5.035889630403744 x_energy=-2567.4556898776495 cas_energy=-2562.419800247246 energy=-2562.419800247246 pbc="F F F"
C       -2.74772060       0.60931810       0.41288760      -0.01352420      -0.33932072       0.36435404       4.13130585      -0.65996264      -1.55592032       4.14483005      -0.32064192      -1.92027436       4.14483005      -0.32064192      -1.92027436
N       -1.84059370      -0.32629320       0.54028650      -0.03340951       0.44052490      -0.52442947      -0.02360011      -1.85256435       0.45957573       0.00980940      -2.29308925       0.98400520       0.00980940      -2.29308925       0.98400520
H       -2.73473090       0.08439510      -0.82375870       0.09439716      -0.08554914       0.14366216      -0.05173327       0.31483598       1.70637764      -0.14613043       0.40038512       1.56271548      -0.14613043       0.40038512       1.56271548
H       -3.39496720       1.01340540       1.14557030       0.07884333       0.08931966      -0.12505933      -2.21777097       0.54221289       0.44023342      -2.29661430       0.45289323       0.56529275      -2.29661430       0.45289323       0.56529275
H       12.20387700       4.12969460      -9.49102120      -0.00041049      -0.01910645      -0.00003094      -0.00041914      -0.01908078      -0.00001486      -0.00000865       0.00002567       0.00001608      -0.00000865       0.00002567       0.00001608
H       -0.73960040      -0.57534670       0.61457840      -0.14341712      -0.07865939       0.10346293      -1.85530319       1.68176775      -1.08829221      -1.71188607       1.76042714      -1.19175514      -1.71188607       1.76042714      -1.19175514
6
Properties=species:S:1:pos:R:3:REF_forces:R:3:x_forces:R:3:cas_forces:R:3:forces:R:3 state=1 data_path=dataset_delta/casscf_2nd_part/CAS_grad_x_points_with_old_xyz.json name=00074-5K_run77_step374 REF_energy=-5.086540960105594 x_energy=-2567.8013291056286 cas_energy=-2562.714788145523 energy=-2562.714788145523 pbc="F F F"
C       -3.23778210       0.56364460       0.06532460      -0.09064831       0.19865251       0.07849487       2.64482640       2.35713079      -1.94645585       2.73547471       2.15847828      -2.02495072       2.73547471       2.15847828      -2.02495072
N       -0.57195710      -0.05254360       0.31538270       0.38597033       0.08710618      -0.23987702      -1.65622950      -2.44904660      -3.79346852      -2.04219983      -2.53615278      -3.55359150      -2.04219983      -2.53615278      -3.55359150
H       -2.47571110      -0.26937920       0.38745400      -0.06312342      -0.07136730      -0.21039168      -0.53686366       0.19652419       0.77368089      -0.47374024       0.26789149       0.98407257      -0.47374024       0.26789149       0.98407257
H       -2.89542590       1.64180320      -0.53360830       0.09389169      -0.23986606       0.03842274      -1.51728049      -2.54322108       1.77153212      -1.61117218      -2.30335502       1.73310938      -1.61117218      -2.30335502       1.73310938
H       -0.45443470      -1.11187740      -0.14520340      -0.16209557      -0.12120214       0.17424125       0.24843718       2.64191478       1.96960401       0.41053275       2.76311692       1.79536276       0.41053275       2.76311692       1.79536276
H       -0.52438520       0.73454080      -0.39911880      -0.16726332       0.14706100       0.16017771       0.81384147      -0.20291790       1.22617523       0.98110479      -0.34997890       1.06599752       0.98110479      -0.34997890       1.06599752
6
Properties=species:S:1:pos:R:3:REF_forces:R:3:x_forces:R:3:cas_forces:R:3:forces:R:3 state=1 data_path=dataset_delta/casscf_2nd_part/CAS_grad_x_points_with_old_xyz.json name=00105-5K_run54_step276 REF_energy=-4.589333952535526 x_energy=-2566.3006091700277 cas_energy=-2561.711275217492 energy=-2561.711275217492 pbc="F F F"
C       -2.86788100       0.54601460       0.30548680       0.15664939      -0.05950013       0.23260360       3.02891649       6.12566218       0.39570664       2.87226710       6.18516231       0.16310304       2.87226710       6.18516231       0.16310304
N       -1.39734640       0.35030430       0.03048160      -0.17968767       0.43488061      -0.05589019       0.63988268      -0.18811298       1.67580948       0.81957035      -0.62299359       1.73169967       0.81957035      -0.62299359       1.73169967
H       -3.51034190       0.24099180       1.19040080       0.05994756       0.04810835      -0.13406486       0.30256497      -1.66731044      -1.16434061       0.24261741      -1.71541879      -1.03027575       0.24261741      -1.71541879      -1.03027575
H       -2.99239070       1.73550520       0.17069040       0.05019099      -0.16747225      -0.08089362      -0.64502859      -2.22343387       0.08268062      -0.69521958      -2.05596162       0.16357424      -0.69521958      -2.05596162       0.16357424
H        4.66812550      -5.71745770      -1.09916580      -0.00001363       0.00001534       0.00001384      -0.00015092       0.00015833       0.00003075      -0.00013729       0.00014299       0.00001691      -0.00013729       0.00014299       0.00001691
H       -0.39104700       1.45130350       0.13306110      -0.08818866      -0.25470872       0.03817693      -3.32728665      -2.04564002      -0.98994118      -3.23909799      -1.79093130      -1.02811811      -3.23909799      -1.79093130      -1.02811811
6
Properties=species:S:1:pos:R:3:REF_forces:R:3:x_forces:R:3:cas_forces:R:3:forces:R:3 state=1 data_path=dataset_delta/casscf_2nd_part/CAS_grad_x_points_with_old_xyz.json name=00095-0K_run73_step88 REF_energy=-5.448016311387619 x_energy=-2569.7325037279466 cas_energy=-2564.284487416559 energy=-2564.284487416559 pbc="F F F"
C       -2.73959980       0.37369800       0.23700200       0.20301672      -0.05179077      -0.04132786       4.57776864      -2.23579121      -2.68416027       4.37475192      -2.18400044      -2.64283241       4.37475192      -2.18400044      -2.64283241
N       -0.96137230       0.11631180       0.04362290      -0.64568198       0.02164317      -0.00235056       1.42242755       0.79790269       1.69287266       2.06810953       0.77625952       1.69522322       2.06810953       0.77625952       1.69522322
H       -3.30576560       0.93122020       0.85026090       0.13333121      -0.04340258      -0.03417226      -1.59110124       3.10262632       3.24386325      -1.72443245       3.14602890       3.27803551      -1.72443245       3.14602890       3.27803551
H       -3.11719630      -0.20134310      -0.53598610       0.14547463       0.06034218       0.07130123      -1.30958260      -1.84137702      -1.75822383      -1.45505723      -1.90171920      -1.82952506      -1.45505723      -1.90171920      -1.82952506
H       -0.39786380      -0.32061940      -0.73062340       0.12158636       0.00151885       0.01786857      -1.77121783       0.50457754      -0.13252557      -1.89280419       0.50305869      -0.15039414      -1.89280419       0.50305869      -0.15039414
H       -0.33330350       0.35848640       0.85354860       0.04230788       0.01156856      -0.01103382      -1.32825971      -0.32805890      -0.36154094      -1.37056759      -0.33962746      -0.35050712      -1.37056759      -0.33962746      -0.35050712
6
Properties=species:S:1:pos:R:3:REF_forces:R:3:x_forces:R:3:cas_forces:R:3:forces:R:3 state=1 data_path=dataset_delta/casscf_2nd_part/CAS_grad_x_points_with_old_xyz.json name=00382-0K_run47_step314 REF_energy=-5.374043002060262 x_energy=-2568.1446720001977 cas_energy=-2562.7706289981375 energy=-2562.7706289981375 pbc="F F F"
C       -2.68438160       0.25676420      -0.06503860      -0.08536944       0.17477993      -0.21922349      -2.23897856      -0.68593762       0.12162877      -2.15360912      -0.86071755       0.34085226      -2.15360912      -0.86071755       0.34085226
N       -0.97787640       0.15543000       0.30253980      -0.43603365      -0.32620233      -0.12300781       0.78820531      -2.08177328       1.77997141       1.22423896      -1.75557095       1.90297922       1.22423896      -1.75557095       1.90297922
H       -2.89228100       1.40082160      -0.10474970       0.08268653      -0.15924105       0.05073237       0.14830176      -1.51115695       0.81116244       0.06561523      -1.35191590       0.76043007       0.06561523      -1.35191590       0.76043007
H       -3.83013310      -0.60454540      -0.42685460       0.27604428       0.11031951       0.17068610       4.02236599       1.94352392       0.53075369       3.74632171       1.83320441       0.36006759       3.74632171       1.83320441       0.36006759
H       -0.66560990       0.95076150      -0.12564530       0.03951611       0.02387910       0.11092389       0.96683344       2.79125583      -3.23565346       0.92731733       2.76737673      -3.34657735       0.92731733       2.76737673      -3.34657735
H        0.00504030      -0.19021150       0.76507380       0.11850954       0.17615234       0.01468200      -3.69137458      -0.45622440      -0.00306979      -3.80988412      -0.63237674      -0.01775179      -3.80988412      -0.63237674      -0.01775179
6
Properties=species:S:1:pos:R:3:REF_forces:R:3:x_forces:R:3:cas_forces:R:3:forces:R:3 state=1 data_path=dataset_delta/casscf_2nd_part/CAS_grad_x_points_with_old_xyz.json name=00230-5K_run60_step277 REF_energy=-4.509203367951159 x_energy=-2566.438324019341 cas_energy=-2561.92912065139 energy=-2561.92912065139 pbc="F F F"
C       -2.16796100       0.99871860       0.04117090       0.26484586      -0.48092475      -0.02981839      -2.49055974       5.18006590       0.78012115      -2.75540560       5.66099065       0.80993954      -2.75540560       5.66099065       0.80993954
N       -1.16814900       0.08251180       0.11162950      -0.06068617       0.24051421      -0.00432109       1.61506058      -1.18476993      -0.54438084       1.67574675      -1.42528414      -0.54005975       1.67574675      -1.42528414      -0.54005975
H       -4.86479710      -2.67866290       0.37999620       0.07638316      -0.09370359       0.24088746       1.14908055      -1.49857700       3.76884928       1.07269739      -1.40487341       3.52796182       1.07269739      -1.40487341       3.52796182
H       -4.58149660      -3.04990440       1.31132400      -0.07165158       0.09874737      -0.24241473      -1.12780569       1.51916167      -3.77798467      -1.05615411       1.42041430      -3.53556994      -1.05615411       1.42041430      -3.53556994
H       -0.29286490       0.06047900       0.71592680      -0.04654620       0.02066745       0.00879238      -0.43892524      -0.44990776      -0.01160601      -0.39237904      -0.47057521      -0.02039839      -0.39237904      -0.47057521      -0.02039839
H       -1.86880960      -0.54162220      -0.30714030      -0.16216258       0.21413033       0.02699708       1.29333204      -3.56654186      -0.21487621       1.45549462      -3.78067219      -0.24187329       1.45549462      -3.78067219      -0.24187329
6
Properties=species:S:1:pos:R:3:REF_forces:R:3:x_forces:R:3:cas_forces:R:3:forces:R:3 state=1 data_path=dataset_delta/casscf_2nd_part/CAS_grad_x_points_with_old_xyz.json name=00242-5K_run76_step177 REF_energy=-4.271378302170888 x_energy=-2563.9265189813595 cas_energy=-2559.6551406791887 energy=-2559.6551406791887 pbc="F F F"
C       -2.64939450       0.40638370       0.05124210       0.15044152       0.04664220       0.26355818       0.86922700      -2.80903758      -2.02166052       0.71878548      -2.85567978      -2.28521870       0.71878548      -2.85567978      -2.28521870
N       -1.26088770      -0.01882610       0.13499730      -0.33172784       0.03666867      -0.27737001      -4.02487389      -2.23890328      -2.84932780      -3.69314605      -2.27557195      -2.57195779      -3.69314605      -2.27557195      -2.57195779
H       -3.85016410      -0.04179370       1.63984600       0.08592461      -0.04589754      -0.12904877       0.82871083       0.44850749      -0.78486026       0.74278622       0.49440503      -0.65581149       0.74278622       0.49440503      -0.65581149
H       -3.46205920      -0.05019290      -0.92655540       0.06044471       0.01885665      -0.01209037       2.09246259       1.36014921       2.89400051       2.03201788       1.34129256       2.90609088       2.03201788       1.34129256       2.90609088
H       -1.17206120      -1.01492020      -0.83712230       0.04651287      -0.05523551       0.15506983       0.24661797       3.24061317       2.76208841       0.20010510       3.29584868       2.60701858       0.20010510       3.29584868       2.60701858
H        4.37954730       3.35531430       1.51496070      -0.00012889      -0.00008106      -0.00006276      -0.00067754      -0.00037559      -0.00018425      -0.00054865      -0.00029453      -0.00012149      -0.00054865      -0.00029453      -0.00012149
6
Properties=species:S:1:pos:R:3:REF_forces:R:3:x_forces:R:3:cas_forces:R:3:forces:R:3 state=1 data_path=dataset_delta/casscf_2nd_part/CAS_grad_x_points_with_old_xyz.json name=00384-5K_run32_step61 REF_energy=-5.208751307713101 x_energy=-2565.4310283066043 cas_energy=-2560.222276998891 energy=-2560.222276998891 pbc="F F F"
C       -2.88089350       0.24620790       0.24383390      -0.16448807      -0.07083078       0.22332850       1.62033751      -0.50488685       0.49013540       1.78482558      -0.43405607       0.26680690       1.78482558      -0.43405607       0.26680690
N       -0.71376740       0.01675180       0.13564300       0.31480432      -0.08069085      -0.06498979      -3.65246191       4.34655852      -2.92786266      -3.96726623       4.42724937      -2.86287287      -3.96726623       4.42724937      -2.86287287
H       -3.62324770       1.69054300       0.31235670      -0.11064633      -0.45694279      -0.45893760      -0.12251220      -1.29329378      -1.24143622      -0.01186587      -0.83635099      -0.78249862      -0.01186587      -0.83635099      -0.78249862
H       -3.76922620       0.93951100      -0.50119210      -0.00705042       0.58379022       0.29921876       0.61562859       1.24184971       1.16395803       0.62267901       0.65805949       0.86473927       0.62267901       0.65805949       0.86473927
H       -0.95224360       0.09553580      -0.98031970       0.03750646       0.04616893       0.06557181       1.10686822      -0.95832211       1.91519576       1.06936176      -1.00449104       1.84962395       1.06936176      -1.00449104       1.84962395
H       -0.73054950       1.21438390       0.14152350      -0.06969242      -0.02104638      -0.06314749       0.43257333      -2.83145714       0.60105388       0.50226575      -2.81041076       0.66420137       0.50226575      -2.81041076       0.66420137
6
Properties=species:S:1:pos:R:3:REF_forces:R:3:x_forces:R:3:cas_forces:R:3:forces:R:3 state=1 data_path=dataset_delta/casscf_2nd_part/CAS_grad_x_points_with_old_xyz.json name=00495-fromIvanD REF_energy=-4.050996205996853 x_energy=-2563.4435953674047 cas_energy=-2559.392599161408 energy=-2559.392599161408 pbc="F F F"
C       -1.50851470       0.37329010       1.31831820      -0.13129667       0.11423777       0.27820055      -2.08807731      -1.65784672      -0.60479452      -1.95678064      -1.77208449      -0.88299507      -1.95678064      -1.77208449      -0.88299507
N       -1.39452840      -0.02503170      -0.03113680      -0.00324820      -0.18763087      -0.20310730      -0.67200532       0.92415796      -0.90389463      -0.66875712       1.11178883      -0.70078733      -0.66875712       1.11178883      -0.70078733
H       -2.46905420       0.10284370       2.35994780       0.09549965       0.01613003      -0.02124550       2.45229935       0.65163463      -3.27640843       2.35679970       0.63550460      -3.25516293       2.35679970       0.63550460      -3.25516293
H       -6.22888930      -3.02167920     -15.34961020       0.00000087      -0.00000164       0.00000397       0.00000555       0.00000386       0.00001820       0.00000468       0.00000550       0.00001423       0.00000468       0.00000550       0.00001423
H       -4.35889520       4.23442950       0.91162780       0.00106064      -0.00174902       0.00030051       0.00348755      -0.00539402       0.00027526       0.00242691      -0.00364500      -0.00002525       0.00242691      -0.00364500      -0.00002525
H       -1.59299470      -0.05510370      -1.37881050       0.03794336       0.05936039      -0.05425173       0.30424982       0.08779094       4.78470461       0.26630646       0.02843055       4.83895634       0.26630646       0.02843055       4.83895634
6