6
Properties=species:S:1:pos:R:3:REF_forces:R:3:x_forces:R:3:cas_forces:R:3:forces:R:3 state=1 data_path=dataset_delta/casscf_2nd_part/CAS_grad_x_points_with_old_xyz.json name=00582-fromIvanD REF_energy=-5.11638924845829 x_energy=-2570.6829587505335 cas_energy=-2565.5665695020753 energy=-2565.5665695020753 pbc="F F F"
C       -2.47822900       0.32898160       0.22207140       0.48183896       1.05912492      -0.41235581      -3.68265762       1.00924353      -0.41040168      -4.16449658      -0.04988139       0.00195413      -4.16449658      -0.04988139       0.00195413
N       -1.21117480       0.14118780       0.08167170      -0.49330608      -0.04010059       0.04175836       9.38915220      -0.55172330      -0.07368093       9.88245828      -0.51162271      -0.11543929       9.88245828      -0.51162271      -0.11543929
H       -2.71517140       1.37232510      -0.29199290       0.10012330      -0.30158629       0.02018980      -1.39202852      -0.78303040       2.25413691      -1.49215182      -0.48144411       2.23394711      -1.49215182      -0.48144411       2.23394711
H       -2.84172630      -0.70976010       0.40265890       0.00367132      -0.71464678       0.29683747      -2.37611818       0.52292231      -1.23765310      -2.37978950       1.23756909      -1.53449057      -2.37978950       1.23756909      -1.53449057
H       -0.85601470       0.36950020      -0.97144480      -0.02677322       0.15438544       0.11805783      -0.14823681      -2.12657424       2.32355932      -0.12146359      -2.28095968       2.20550149      -0.12146359      -2.28095968       2.20550149
H       -0.44632960       0.03869300       0.97981610      -0.06544681      -0.15728716      -0.06424427      -1.79000360       1.92905164      -2.85571714      -1.72455679       2.08633880      -2.79147287      -1.72455679       2.08633880      -2.79147287
6
Properties=species:S:1:pos:R:3:REF_forces:R:3:x_forces:R:3:cas_forces:R:3:forces:R:3 state=1 data_path=dataset_delta/casscf_2nd_part/CAS_grad_x_points_with_old_xyz.json name=00315-0K_run11_step205 REF_energy=-4.998739708553785 x_energy=-2568.8287744638046 cas_energy=-2563.830034755251 energy=-2563.830034755251 pbc="F F F"
C       -3.06441090       0.38955000       0.12199730      -0.10224202       0.09420469      -0.06122297       0.71025573      -3.57699730       2.31100668       0.81249775      -3.67120199       2.37222965       0.81249775      -3.67120199       2.37222965
N       -0.71901050       0.21361400       0.15770040       0.05172363      -0.07714613       0.07666742       2.68838367      -0.04261547      -0.84724535       2.63666004       0.03453066      -0.92391277       2.63666004       0.03453066      -0.92391277
H       -3.42747020      -0.12493800      -0.85394640       0.06391725      -0.02258958       0.10902044      -0.04681295       1.71050811       0.83358179      -0.11073020       1.73309769       0.72456135      -0.11073020       1.73309769       0.72456135
H       -3.08207340       0.30696920       1.33697760       0.06801826      -0.05703368      -0.10945533      -0.55613002       1.21149989      -2.61706100      -0.62414828       1.26853357      -2.50760567      -0.62414828       1.26853357      -2.50760567
H        0.24450250      -0.19318310       0.57175980      -0.01720235       0.03606685      -0.04032212      -2.42901930       0.39869411       0.18077664      -2.41181695       0.36262726       0.22109876      -2.41181695       0.36262726       0.22109876
H       -0.68588650      -0.36139980      -0.72776470      -0.06415131       0.02650553       0.02531975      -0.36661368       0.29891833       0.13894844      -0.30246237       0.27241280       0.11362869      -0.30246237       0.27241280       0.11362869
6
Properties=species:S:1:pos:R:3:REF_forces:R:3:x_forces:R:3:cas_forces:R:3:forces:R:3 state=1 data_path=dataset_delta/casscf_2nd_part/CAS_grad_x_points_with_old_xyz.json name=00314-0K_run11_step456 REF_energy=-5.042184288438875 x_energy=-2567.231501521861 cas_energy=-2562.189317233422 energy=-2562.189317233422 pbc="F F F"
C       -3.19619470       0.10055440       0.30901610       0.06157099      -0.23946842      -0.39624511      -0.11005618       5.99593443       0.61770069      -0.17162717       6.23540285       1.01394580      -0.17162717       6.23540285       1.01394580
N       -0.67433020       0.34915060       0.01504340      -0.28000887      -0.13942835      -0.01177766       4.78343670      -1.02088857       1.03950912       5.06344557      -0.88146022       1.05128678       5.06344557      -0.88146022       1.05128678
H       -2.77089840       0.97184420       1.16697400       0.07082225       0.31071192       0.31077246      -0.69649447      -3.76970422      -1.35797102      -0.76731672      -4.08041614      -1.66874348      -0.76731672      -4.08041614      -1.66874348
H       -3.82804110       0.30750900      -0.65436370       0.01532389      -0.00150304       0.09159713       0.50585353      -2.26727931       0.70951582       0.49052964      -2.26577627       0.61791869       0.49052964      -2.26577627       0.61791869
H       -0.02866530       0.63800410      -0.77500210       0.07998052       0.00406671       0.03774920      -1.14657017       0.23582268      -0.43651668      -1.22655069       0.23175597      -0.47426588      -1.22655069       0.23175597      -0.47426588
H        0.32471680      -0.15104290       0.47521950       0.05257400       0.06548229      -0.03208753      -3.33590664       0.82597611      -0.57222944      -3.38848064       0.76049382      -0.54014191      -3.38848064       0.76049382      -0.54014191
6
Properties=species:S:1:pos:R:3:REF_forces:R:3:x_forces:R:3:cas_forces:R:3:forces:R:3 state=1 data_path=dataset_delta/casscf_2nd_part/CAS_grad_x_points_with_old_xyz.json name=00583-fromIvanD REF_energy=-5.079305927210044 x_energy=-2568.7430287210864 cas_energy=-2563.6637227938763 energy=-2563.6637227938763 pbc="F F F"
C       -2.55327110       0.35130930       0.18685930       0.00766592      -0.35084435      -0.11611566      -2.51795207      -0.26691930       0.06722067      -2.52561799       0.08392505       0.18333633      -2.52561799       0.08392505       0.18333633
N       -1.09681360       0.17766140       0.01282550      -0.25128681      -0.01171314       0.50800081       0.59251833      -1.32024717       1.19514932       0.84380514      -1.30853403       0.68714851       0.84380514      -1.30853403       0.68714851
H       -3.18372510       0.64851350       1.14260050       0.12436551       0.06502970      -0.21053077       2.05901361      -0.99477053      -0.15147589       1.93464810      -1.05980023       0.05905488       1.93464810      -1.05980023       0.05905488
H       -3.43691370      -0.35074850      -0.32494400       0.12287941       0.12944271       0.17679466       2.31860409       1.86453356      -0.55636825       2.19572468       1.73509085      -0.73316291       2.19572468       1.73509085      -0.73316291
H       -1.12910900      -1.07231620       0.40986690      -0.03701491       0.16442743      -0.26732266       1.18841375       3.85701802       0.48948254       1.22542866       3.69259059       0.75680520       1.22542866       3.69259059       0.75680520
H        0.04408530       1.11848730       0.36056370       0.03157058       0.00328851      -0.09161401      -3.64241800      -3.13998373      -1.04479603      -3.67398858      -3.14327224      -0.95318202      -3.67398858      -3.14327224      -0.95318202
6
Properties=species:S:1:pos:R:3:REF_forces:R:3:x_forces:R:3:cas_forces:R:3:forces:R:3 state=1 data_path=dataset_delta/casscf_2nd_part/CAS_grad_x_points_with_old_xyz.json name=00391-5K_run13_step0 REF_energy=-5.545929830349451 x_energy=-2567.625703904092 cas_energy=-2562.0797740737426 energy=-2562.0797740737426 pbc="F F F"
C       -2.47126180       0.34363470       0.18751480       0.38219597      -0.53162244      -0.81930093       8.29135920      -3.14422605      -8.38650956       7.90916323      -2.61260361      -7.56720863       7.90916323      -2.61260361      -7.56720863
N       -1.13996490       0.17238260       0.06844590      -0.62700412      -0.00330111       0.56633018      -2.14187560       1.41863060       0.38242740      -1.51487148       1.42193171      -0.18390278      -1.51487148       1.42193171      -0.18390278
H       -2.88779350       0.68898330       0.89797210       0.06725265       0.06258247       0.18529174      -8.57166341       5.39114839      10.31724240      -8.63891606       5.32856592      10.13195066      -8.63891606       5.32856592      10.13195066
H       -3.21741750      -0.27398910      -0.56444760       0.18703744       0.25450166       0.28606412      -0.65730946      -0.63120937       0.10223237      -0.84434690      -0.88571103      -0.18383175      -0.84434690      -0.88571103      -0.18383175
H       -1.12511990      -0.50717850      -0.66818230      -0.13129755       0.05506455      -0.13567600       2.93858113      -1.47045900      -0.87848776       3.06987868      -1.52552355      -0.74281176       3.06987868      -1.52552355      -0.74281176
H       -0.67970400       0.43847900       1.02708900       0.11855051       0.16311386      -0.08246799       0.13764304      -1.56354559      -1.53666373       0.01909253      -1.72665945      -1.45419574       0.01909253      -1.72665945      -1.45419574
6
Properties=species:S:1:pos:R:3:REF_forces:R:3:x_forces:R:3:cas_forces:R:3:forces:R:3 state=1 data_path=dataset_delta/casscf_2nd_part/CAS_grad_x_points_with_old_xyz.json name=00580-fromIvanD REF_energy=-4.994079297545795 x_energy=-2567.6960865652627 cas_energy=-2562.702007267717 energy=-2562.702007267717 pbc="F F F"
C       -3.66453370       0.58248110       0.32786420      -2.05269738      -0.25519602      -0.19556135      -0.25400449      -4.22090936       4.47944044       1.79869289      -3.96571334       4.67500179       1.79869289      -3.96571334       4.67500179
N       -0.19172000      -0.10589910      -0.13513550       1.03603318       1.14149364       1.52594425      -0.32202293       3.69208627       1.34392102      -1.35805611       2.55059263      -0.18202323      -1.35805611       2.55059263      -0.18202323
H       -3.06345250       1.20463150      -0.24375550       1.06953627      -0.22272169       0.56397258       1.13667050       1.76483974      -1.88002852       0.06713423       1.98756143      -2.44400110       0.06713423       1.98756143      -2.44400110
H       -3.57537500      -0.27624130       1.27048400       0.97347784       0.51896742      -0.32360395      -0.65530405       2.30365981      -2.72792760      -1.62878189       1.78469239      -2.40432365      -1.62878189       1.78469239      -2.40432365
H       -0.16552830       1.05792370      -0.09717260      -0.67988028       0.23840687      -1.19872774       0.12384701      -3.31014912      -0.56114860       0.80372729      -3.54855599       0.63757914       0.80372729      -3.54855599       0.63757914
H        0.17680580      -0.63296580       0.69891850      -0.34789138      -1.44197237      -0.36404869      -0.03060780      -0.25054950      -0.64628164       0.31728358       1.19142287      -0.28223295       0.31728358       1.19142287      -0.28223295
6
Properties=species:S:1:pos:R:3:REF_forces:R:3:x_forces:R:3:cas_forces:R:3:forces:R:3 state=1 data_path=dataset_delta/casscf_2nd_part/CAS_grad_x_points_with_old_xyz.json name=00319-0K_run13_step435 REF_energy=-5.6151901289777015 x_energy=-2565.7128994299715 cas_energy=-2560.0977093009938 energy=-2560.0977093009938 pbc="F F F"
C       -2.47519200       0.35348380       0.28887230      -0.31176699      -0.52494958      -0.13888762      -4.45852071       1.83227793       1.73593247      -4.14675372       2.35722751       1.87482009      -4.14675372       2.35722751       1.87482009
N       -1.23397230       0.06954560       0.13300710       0.02581054       0.02125210      -0.82909876      -9.84541372     -22.45110795      -6.42322856      -9.87122426     -22.47236005      -5.59412980      -9.87122426     -22.47236005      -5.59412980
H       -3.18700190       1.35147300       0.40046550       0.11441674      -0.15509999       0.10811319       0.91673971      -2.05728100      -0.76550129       0.80232297      -1.90218101      -0.87361448       0.80232297      -1.90218101      -0.87361448
H       -2.85710320      -0.48411960      -0.48763270       0.18456305       0.44451892       0.12354418      -1.45084277       0.21457102      -1.00206018      -1.63540582      -0.22994790      -1.12560436      -1.63540582      -0.22994790      -1.12560436
H       -0.77196560      -0.96345060      -0.72054510      -0.23355800       0.49431069       0.81815768      -1.15852930       3.55747137       2.73683986      -0.92497130       3.06316068       1.91868218      -0.92497130       3.06316068       1.91868218
H       -0.77438040       0.68328770       0.28933250       0.22083841      -0.27680912      -0.08168090      15.99687054      18.90729166       3.71816548      15.77603213      19.18410078       3.79984638      15.77603213      19.18410078       3.79984638
6
Properties=species:S:1:pos:R:3:REF_forces:R:3:x_forces:R:3:cas_forces:R:3:forces:R:3 state=1 data_path=dataset_delta/casscf_2nd_part/CAS_grad_x_points_with_old_xyz.json name=00341-0K_run11_step79 REF_energy=-5.016956317783297 x_energy=-2569.269756527026 cas_energy=-2564.2528002092427 energy=-2564.2528002092427 pbc="F F F"
C       -2.93326860       0.36472850       0.26386820      -0.37438795       0.07720999       0.02212460       1.53294787       2.84631513      -2.82275380       1.90733582       2.76910514      -2.84487840       1.90733582       2.76910514      -2.84487840
N       -0.79199660       0.00546810       0.04855720       0.18384965       0.18431453       0.01750663      -1.10854139       3.85084316       0.09390430      -1.29239104       3.66652863       0.07639767      -1.29239104       3.66652863       0.07639767
H       -3.07010020       1.58943350       0.06528380       0.10108000      -0.13501563      -0.01749249       0.68594821      -2.59379946       1.84909388       0.58486821      -2.45878383       1.86658637       0.58486821      -2.45878383       1.86658637
H       -3.53471210      -0.42315990      -0.24810890       0.11683320       0.04358589       0.01857802       0.56763236      -0.63297721       0.87526976       0.45079916      -0.67656310       0.85669174       0.45079916      -0.67656310       0.85669174
H       -0.61188520       0.94045110      -0.49921140      -0.01178178      -0.09913831       0.08194590      -0.86588451      -2.06243570      -1.29405087      -0.85410273      -1.96329739      -1.37599677      -0.85410273      -1.96329739      -1.37599677
H       -0.13138660       0.41865630       0.76897760      -0.01552843      -0.07920226      -0.12438469      -0.81203785      -1.41619170       1.29681470      -0.79650942      -1.33698944       1.42119939      -0.79650942      -1.33698944       1.42119939
6
Properties=species:S:1:pos:R:3:REF_forces:R:3:x_forces:R:3:cas_forces:R:3:forces:R:3 state=1 data_path=dataset_delta/casscf_2nd_part/CAS_grad_x_points_with_old_xyz.json name=00370-0K_run11_step154 REF_energy=-5.119403035449523 x_energy=-2568.772169257262 cas_energy=-2563.6527662218123 energy=-2563.6527662218123 pbc="F F F"
C       -3.13467850       0.43295370       0.21705910      -0.33218906      -0.06957955       0.05160370       1.53190524      -3.78385326       0.42980965       1.86409430      -3.71427371       0.37820595       1.86409430      -3.71427371       0.37820595
N       -0.61465830       0.12927820       0.03494040       0.20979331      -0.08204130      -0.16374943      -0.20855119       2.03897582      -0.01397821      -0.41834450       2.12101712       0.14977122      -0.41834450       2.12101712       0.14977122
H       -3.20026350       0.66858500      -0.88693720       0.05788255       0.03104128       0.09470637      -0.59814776       0.40179100       0.79810072      -0.65603031       0.37074972       0.70339435      -0.65603031       0.37074972       0.70339435
H       -3.51153700      -0.47443240       0.96055150       0.03367584       0.08703893      -0.08714603       0.21084909       2.69781088      -1.34521948       0.17717325       2.61077195      -1.25807345       0.17717325       2.61077195      -1.25807345
H       -0.42920960       0.87721430       0.82151130      -0.01451015      -0.00870858       0.01063324      -0.27038705      -2.42534211      -0.99101328      -0.25587690      -2.41663353      -1.00164652      -0.25587690      -2.41663353      -1.00164652
H       -0.36149230      -0.90669290      -0.02173060       0.04517808       0.04232029       0.09404148      -0.66583776       1.07068874       1.12238992      -0.71101584       1.02836845       1.02834844      -0.71101584       1.02836845       1.02834844
6
Properties=species:S:1:pos:R:3:REF_forces:R:3:x_forces:R:3:cas_forces:R:3:forces:R:3 state=1 data_path=dataset_delta/casscf_2nd_part/CAS_grad_x_points_with_old_xyz.json name=00409-0K_run13_step58 REF_energy=-4.9356186671088835 x_energy=-2568.398099982179 cas_energy=-2563.46248131507 energy=-2563.46248131507 pbc="F F F"
C       -2.66226260       0.37818650       0.24618990       0.14193784      -0.01677354      -0.24767902      -5.09639047      -2.67210555      -1.70185548      -5.23832831      -2.65533201      -1.45417646      -5.23832831      -2.65533201      -1.45417646
N       -0.96113970       0.03801330       0.09700810      -0.31701361       0.38880683      -0.07347749       1.25695607       3.01459734      -0.85380362       1.57396968       2.62579051      -0.78032613       1.57396968       2.62579051      -0.78032613
H       -3.33415810       1.13595400       0.83662250       0.08776129      -0.12409695      -0.02520814       2.01553399      -0.05543571      -0.88136662       1.92777270       0.06866124      -0.85615848       1.92777270       0.06866124      -0.85615848
H       -3.64526710      -0.30074840      -0.87539280       0.12710615       0.03781733       0.20148394       2.94376375       1.75516293       2.59867674       2.81665760       1.71734560       2.39719280       2.81665760       1.71734560       2.39719280
H       -0.66754930       0.07087740      -0.96972660      -0.03284207      -0.09094133       0.09463813      -0.46498677       0.03672775       1.87274828      -0.43214470       0.12766908       1.77811015      -0.43214470       0.12766908       1.77811015
H       -0.44607180       0.89412960       0.60940360      -0.00695420      -0.19486891       0.05015649      -0.65488116      -2.07900333      -1.03448539      -0.64792696      -1.88413442      -1.08464188      -0.64792696      -1.88413442      -1.08464188
6
Properties=species:S:1:pos:R:3:REF_forces:R:3:x_forces:R:3:cas_forces:R:3:forces:R:3 state=1 data_path=dataset_delta/casscf_2nd_part/CAS_grad_x_points_with_old_xyz.json name=00581-fromIvanD REF_energy=-4.938402505479644 x_energy=-2570.941284742597 cas_energy=-2566.0028822371173 energy=-2566.0028822371173 pbc="F F F"
C       -2.84254590       0.35138560       0.24440690      -0.76408425      -0.15187781       0.44470085       2.35621686       0.64549910       0.24069471       3.12030111       0.79737691      -0.20400614       3.12030111       0.79737691      -0.20400614
N       -0.85826440       0.02238220       0.07383190       0.27855409       0.47147437      -0.15562622      -3.40603652       5.71552378      -2.68909376      -3.68459061       5.24404941      -2.53346754      -3.68459061       5.24404941      -2.53346754
H       -3.05609550       1.46061230       0.37974660       0.18001272      -0.06428582      -0.33360420       1.08997422      -0.81706800       0.39092757       0.90996150      -0.75278218       0.72453177       0.90996150      -0.75278218       0.72453177
H       -3.46473050      -0.28004730      -0.36765870       0.09962306       0.07097203      -0.01653526       0.22345449      -1.12425407      -0.60050165       0.12383143      -1.19522610      -0.58396639       0.12383143      -1.19522610      -0.58396639
H       -0.62719900       0.70038500      -0.87479440       0.09235898      -0.02740191       0.14289467      -0.33323382      -3.22772505       2.06626176      -0.42559280      -3.20032314       1.92336709      -0.42559280      -3.20032314       1.92336709
H       -0.34177550       0.53464270       0.82258440       0.11456981      -0.29800663      -0.08399224       0.07065917      -1.19110153       0.58954896      -0.04391064      -0.89309490       0.67354120      -0.04391064      -0.89309490       0.67354120
6
Properties=species:S:1:pos:R:3:REF_forces:R:3:x_forces:R:3:cas_forces:R:3:forces:R:3 state=1 data_path=dataset_delta/casscf_2nd_part/CAS_grad_x_points_with_old_xyz.json name=00418-5K_run18_step119 REF_energy=-4.894490758804295 x_energy=-2567.9873150983135 cas_energy=-2563.092824339509 energy=-2563.092824339509 pbc="F F F"
C       -3.35961200       0.38131120       0.16807490       0.11133217       0.38713006       0.14721663      -0.41957584      -3.67194013      -0.95003040      -0.53090801      -4.05907019      -1.09724703      -0.53090801      -4.05907019      -1.09724703
N       -0.39752730       0.01003710       0.07956690       0.23630925      -0.33033305      -0.11508732       0.13311024       0.23334393      -6.98705749      -0.10319901       0.56367698      -6.87197017      -0.10319901       0.56367698      -6.87197017
H       -3.19073850       1.46941870       0.41579910      -0.01744673       0.03720864      -0.01543623      -0.08403502      -0.48830338      -0.16801158      -0.06658829      -0.52551202      -0.15257535      -0.06658829      -0.52551202      -0.15257535
H       -3.60752220      -0.86156770      -0.17056790      -0.09031158      -0.37896070      -0.11562772       0.83325243       3.97391586       1.02762137       0.92356401       4.35287656       1.14324909       0.92356401       4.35287656       1.14324909
H       -0.36502600       0.99651490      -0.42147610      -0.11603047       0.11844585       0.08890369       0.37844266      -1.89041639       0.38455093       0.49447313      -2.00886224       0.29564724       0.49447313      -2.00886224       0.29564724
H       -0.57305810       0.33022790       0.92826770      -0.12389989       0.16649404       0.01007255      -0.84124172       1.84338495       6.69296878      -0.71734183       1.67689091       6.68289623      -0.71734183       1.67689091       6.68289623
6
Properties=species:S:1:pos:R:3:REF_forces:R:3:x_forces:R:3:cas_forces:R:3:forces:R:3 state=1 data_path=dataset_delta/casscf_1st_part/cas_main.json REF_energy=-4.839982105226682 x_energy=-2567.1550379642563 cas_energy=-2562.3150558590296 energy=-2562.3150558590296 pbc="F F F"
C       -2.79835080       0.31701680       0.08936980       0.31014185       0.35441665       0.40491492       6.16916478       6.57397570       9.21529671       5.85902293       6.21955905       8.81038179       5.85902293       6.21955905       8.81038179
N       -0.92207740       0.15015970       0.13294960      -0.02708800      -0.07807134       0.16398931       0.36397902       0.36517715       0.87177759       0.39106702       0.44324849       0.70778828       0.39106702       0.44324849       0.70778828
H       -2.66426070       1.08886230       1.23060050       0.13319469      -0.08245518      -0.14686377      -1.64327499      -1.67323961      -3.82073626      -1.77646968      -1.59078443      -3.67387249      -1.77646968      -1.59078443      -3.67387249
H       -3.30674140      -0.33559720      -0.42432470      -0.20084488      -0.32778938      -0.42329766      -3.59956239      -4.37993715      -3.31138001      -3.39871751      -4.05214777      -2.88808235      -3.39871751      -4.05214777      -2.88808235
H       -1.02847420      -0.12516460      -0.86700860      -0.21999229       0.04112074       0.03758561       2.46090874       0.42178657       0.54944669       2.68090103       0.38066583       0.51186108       2.68090103       0.38066583       0.51186108
H       -0.04237570       0.34468010       1.02658070       0.00492724       0.09202805      -0.03611809      -3.75087655      -1.30851312      -3.50419440      -3.75580379      -1.40054117      -3.46807631      -3.75580379      -1.40054117      -3.46807631
6
Properties=species:S:1:pos:R:3:REF_forces:R:3:x_forces:R:3:cas_forces:R:3:forces:R:3 state=1 data_path=dataset_delta/casscf_1st_part/cas_main.json REF_energy=-5.107526870704078 x_energy=-2568.523914146866 cas_energy=-2563.416387276162 energy=-2563.416387276162 pbc="F F F"
C       -3.13770910       0.27790160       0.20798440       0.09753858      -0.20337210      -0.03551049       1.74484875       4.39256887      -2.15427125       1.64731017       4.59594097      -2.11876076       1.64731017       4.59594097      -2.11876076
N       -0.60743230       0.11447790      -0.02780040       0.58519155      -0.07435830      -0.07398523      -0.25502460       1.24710828       2.60187129      -0.84021615       1.32146658       2.67585652      -0.84021615       1.32146658       2.67585652
H       -2.96744160       0.01107790       1.27282710      -0.25061331       0.22551558      -0.02323687      -0.97430866      -0.83381041      -0.07487634      -0.72369535      -1.05932599      -0.05163947      -0.72369535      -1.05932599      -0.05163947
H       -3.41305900       1.17557020      -0.68559370      -0.11846504      -0.00017019       0.22336458       0.15481739      -3.05973733       2.20334548       0.27328243      -3.05956714       1.97998090       0.27328243      -3.05956714       1.97998090
H       -1.06267380      -0.53697380       0.69297650      -0.21742781       0.02813614      -0.08356605       1.23486124       0.25859396      -0.55774205       1.45228905       0.23045782      -0.47417600       1.45228905       0.23045782      -0.47417600
H       -0.06211310       0.91286210       0.67273460      -0.09338368       0.02410071      -0.00708800      -1.90235382      -2.00487153      -2.01834920      -1.80897014      -2.02897224      -2.01126120      -1.80897014      -2.02897224      -2.01126120
6
Properties=species:S:1:pos:R:3:REF_forces:R:3:x_forces:R:3:cas_forces:R:3:forces:R:3 state=1 data_path=dataset_delta/casscf_1st_part/cas_main.json REF_energy=-4.892225006175977 x_energy=-2566.7399973768715 cas_energy=-2561.8477723706956 energy=-2561.8477723706956 pbc="F F F"
C       -2.61020900       0.21910770       0.30388480       0.85391224      -0.81570172       0.08027236      -1.41530375       2.88273131       0.67752122      -2.26921599       3.69843303       0.59724886      -2.26921599       3.69843303       0.59724886
N       -1.34976720       0.10215610      -0.04283380      -1.95760023      -0.32852648      -0.23751974       6.86765802      -3.40289468      -0.85627198       8.82525825      -3.07436820      -0.61875224       8.82525825      -3.07436820      -0.61875224
H       -2.42096220       1.37494140       0.33326670       0.75662671       0.12176139       0.06003563      -2.42856164      -0.30726521       0.42684383      -3.18518835      -0.42902660       0.36680820      -3.18518835      -0.42902660       0.36680820
H       -3.60137050      -0.29821190       0.52387370       0.01713543       0.35820658      -0.18678899       1.04932127      -0.28697648      -0.14345188       1.03218584      -0.64518306       0.04333711       1.03218584      -0.64518306       0.04333711
H       -0.17681360      -0.45538980       0.02117480       0.42448539       0.72498673       0.33977720      -3.99765125       1.19912147      -0.07260349      -4.42213664       0.47413474      -0.41238069      -4.42213664       0.47413474      -0.41238069
H        1.36721110       0.55905110       1.02191600      -0.10476360      -0.06260861      -0.05451703      -0.08566670      -0.08659851      -0.03077827       0.01909690      -0.02398990       0.02373876       0.01909690      -0.02398990       0.02373876
6
Properties=species:S:1:pos:R:3:REF_forces:R:3:x_forces:R:3:cas_forces:R:3:forces:R:3 state=1 data_path=dataset_delta/casscf_1st_part/cas_main.json REF_energy=-5.139916500031177 x_energy=-2568.4998422481904 cas_energy=-2563.359925748159 energy=-2563.359925748159 pbc="F F F"
C       -3.01776350       0.17805210       0.26620830      -0.07302227       0.08804501      -0.64630910      -2.26046774       0.37041665       3.16781916      -2.18744547       0.28237164       3.81412826      -2.18744547       0.28237164       3.81412826
N       -0.67187070       0.36172610      -0.00997070       0.33485708       0.20664688      -0.05758718      -0.48939194      -0.33261737       1.61875284      -0.82424902      -0.53926425       1.67634002      -0.82424902      -0.53926425       1.67634002
H       -3.51120740       0.00220180       1.41530570      -0.21702319      -0.09123939       0.60411956       1.99870874       0.10504711      -2.95378561       2.21573193       0.19628650      -3.55790517       2.21573193       0.19628650      -3.55790517
H       -3.78775120       0.56290930      -0.50262870       0.06065612      -0.04217041       0.03254829       1.49921582      -0.27645321       0.13743026       1.43855970      -0.23428280       0.10488197       1.43855970      -0.23428280       0.10488197
H       -0.95388800      -0.17911200      -0.87777760      -0.04915540      -0.05281660       0.13470608       1.13117955      -0.01658007       1.09976036       1.18033495       0.03623653       0.96505428       1.18033495       0.03623653       0.96505428
H       -0.14325110       0.15296450       1.00623290      -0.05547756      -0.10975619      -0.06780094      -1.87840965       0.14889619      -3.07030030      -1.82293209       0.25865238      -3.00249936      -1.82293209       0.25865238      -3.00249936
6