6
Properties=species:S:1:pos:R:3:REF_forces:R:3:x_forces:R:3:cas_forces:R:3:forces:R:3 state=0 data_path=dataset_delta/casscf_2nd_part/CAS_grad_x_points_with_old_xyz.json name=00580-fromIvanD REF_energy=-4.885765925354008 x_energy=-2568.431010219308 cas_energy=-2563.545244293954 energy=-2563.545244293954 pbc="F F F"
C       -3.66453370       0.58248110       0.32786420      -0.23870280      -0.09213223       0.72230623      -1.31454298      -4.19998850       4.14870471      -1.07584018      -4.10785627       3.42639848      -1.07584018      -4.10785627       3.42639848
N       -0.19172000      -0.10589910      -0.13513550       0.09662166       0.02329879       0.04351671      -1.11825878       2.43465634      -0.36228703      -1.21488044       2.41135755      -0.40580374      -1.21488044       2.41135755      -0.40580374
H       -3.06345250       1.20463150      -0.24375550       0.28358198       0.12380561      -0.50535643       1.78879204       1.72179258      -1.65574515       1.50521006       1.59798697      -1.15038872       1.50521006       1.59798697      -1.15038872
H       -3.57537500      -0.27624130       1.27048400      -0.04525701      -0.05850405      -0.24224852      -0.18839369       2.33201255      -2.60880555      -0.14313668       2.39051660      -2.36655703      -0.14313668       2.39051660      -2.36655703
H       -0.16552830       1.05792370      -0.09717260      -0.07788713       0.08005182      -0.04935628       0.62793008      -3.47477018       0.66647632       0.70581721      -3.55482200       0.71583260       0.70581721      -3.55482200       0.71583260
H        0.17680580      -0.63296580       0.69891850      -0.01924087      -0.07733960       0.03246288       0.20358917       1.18547755      -0.18701872       0.22283004       1.26281715      -0.21948160       0.22283004       1.26281715      -0.21948160
6
Properties=species:S:1:pos:R:3:REF_forces:R:3:x_forces:R:3:cas_forces:R:3:forces:R:3 state=0 data_path=dataset_delta/casscf_2nd_part/CAS_grad_x_points_with_old_xyz.json name=00391-5K_run13_step0 REF_energy=-4.883258343069883 x_energy=-2575.1592944378403 cas_energy=-2570.2760360947705 energy=-2570.2760360947705 pbc="F F F"
C       -2.47126180       0.34363470       0.18751480       0.01162202      -0.10875159      -0.08873802       5.39363897      -7.57290041     -11.82931522       5.38201695      -7.46414882     -11.74057720       5.38201695      -7.46414882     -11.74057720
N       -1.13996490       0.17238260       0.06844590      -0.05933126      -0.03174428       0.06060956      -4.82558145       1.65984833       3.28216230      -4.76625019       1.69159261       3.22155274      -4.76625019       1.69159261       3.22155274
H       -2.88779350       0.68898330       0.89797210       0.04327911      -0.07465465      -0.10158070      -5.62204386       5.88279730      10.57314231      -5.66532297       5.95745195      10.67472301      -5.66532297       5.95745195      10.67472301
H       -3.21741750      -0.27398910      -0.56444760       0.13259732       0.13546617       0.14594760       2.01284287       1.85724139       1.32503858       1.88024555       1.72177522       1.17909098       1.88024555       1.72177522       1.17909098
H       -1.12511990      -0.50717850      -0.66818230      -0.07704414       0.06224926       0.05444563       2.55380178      -0.92834335      -0.71183377       2.63084592      -0.99059261      -0.76627940       2.63084592      -0.99059261      -0.76627940
H       -0.67970400       0.43847900       1.02708900      -0.05143981       0.01798249      -0.07076521       0.48702493      -0.89809586      -2.63927534       0.53846474      -0.91607835      -2.56851013       0.53846474      -0.91607835      -2.56851013
6
Properties=species:S:1:pos:R:3:REF_forces:R:3:x_forces:R:3:cas_forces:R:3:forces:R:3 state=0 data_path=dataset_delta/casscf_2nd_part/CAS_grad_x_points_with_old_xyz.json name=00409-0K_run13_step58 REF_energy=-4.749863947585709 x_energy=-2571.6560911381407 cas_energy=-2566.906227190555 energy=-2566.906227190555 pbc="F F F"
C       -2.66226260       0.37818650       0.24618990      -0.29193113       0.00970542       0.06050652       2.30263949      -1.78749276      -4.62263264       2.59457062      -1.79719818      -4.68313916       2.59457062      -1.79719818      -4.68313916
N       -0.96113970       0.03801330       0.09700810       0.15260586       0.07873274      -0.14114963      -4.76167112       4.50265488       0.16842383      -4.91427698       4.42392214       0.30957346      -4.91427698       4.42392214       0.30957346
H       -3.33415810       1.13595400       0.83662250       0.08723147      -0.05538625      -0.10103572       1.79967259      -1.22010614       0.26724742       1.71244112      -1.16471989       0.36828314       1.71244112      -1.16471989       0.36828314
H       -3.64526710      -0.30074840      -0.87539280       0.10301282       0.05312248       0.09157202       2.92213064       1.44308447       2.99552048       2.81911782       1.38996199       2.90394846       2.81911782       1.38996199       2.90394846
H       -0.66754930       0.07087740      -0.96972660      -0.01235313      -0.00300218       0.10527039      -1.06586092      -0.72581672       2.01412364      -1.05350779      -0.72281454       1.90885325      -1.05350779      -0.72281454       1.90885325
H       -0.44607180       0.89412960       0.60940360      -0.03850650      -0.08337660      -0.01519171      -1.19685129      -2.21252813      -0.82271086      -1.15834479      -2.12915153      -0.80751915      -1.15834479      -2.12915153      -0.80751915
6
Properties=species:S:1:pos:R:3:REF_forces:R:3:x_forces:R:3:cas_forces:R:3:forces:R:3 state=0 data_path=dataset_delta/casscf_2nd_part/CAS_grad_x_points_with_old_xyz.json name=00370-0K_run11_step154 REF_energy=-5.1749701340645515 x_energy=-2570.0715620952806 cas_energy=-2564.896591961216 energy=-2564.896591961216 pbc="F F F"
C       -3.13467850       0.43295370       0.21705910      -0.47383589      -0.08485750      -0.05137837       1.02090328      -2.13407564       0.59005989       1.49473917      -2.04921814       0.64143826       1.49473917      -2.04921814       0.64143826
N       -0.61465830       0.12927820       0.03494040       0.77078065      -0.30502645       0.60634905      -2.73948101       0.40871375       2.12334031      -3.51026166       0.71374020       1.51699126      -3.51026166       0.71374020       1.51699126
H       -3.20026350       0.66858500      -0.88693720       0.10554406       0.00834102       0.11297846      -0.15204431      -0.16566606       0.82713500      -0.25758837      -0.17400708       0.71415654      -0.25758837      -0.17400708       0.71415654
H       -3.51153700      -0.47443240       0.96055150       0.11448671       0.12208162      -0.01074082       1.01526732       2.14269403      -1.92249625       0.90078061       2.02061241      -1.91175543       0.90078061       2.02061241      -1.91175543
H       -0.42920960       0.87721430       0.82151130      -0.27223507       0.15085916      -0.29733861       0.51576673      -1.68172610      -1.74826127       0.78800180      -1.83258526      -1.45092266       0.78800180      -1.83258526      -1.45092266
H       -0.36149230      -0.90669290      -0.02173060      -0.24488384       0.10851618      -0.35985823       0.33944462       1.42997405       0.13023379       0.58432846       1.32145787       0.49009202       0.58432846       1.32145787       0.49009202
6
Properties=species:S:1:pos:R:3:REF_forces:R:3:x_forces:R:3:cas_forces:R:3:forces:R:3 state=0 data_path=dataset_delta/casscf_2nd_part/CAS_grad_x_points_with_old_xyz.json name=00314-0K_run11_step456 REF_energy=-4.995963041281357 x_energy=-2569.239615639701 cas_energy=-2564.2436525984194 energy=-2564.2436525984194 pbc="F F F"
C       -3.19619470       0.10055440       0.30901610       0.00266887      -0.23732042      -0.38524377       1.81495898       3.49377449       1.42183039       1.81229011       3.73109491       1.80707416       1.81229011       3.73109491       1.80707416
N       -0.67433020       0.34915060       0.01504340      -0.12500349      -0.13196298      -0.06025059       3.65250315      -1.59816360       0.53690572       3.77750664      -1.46620062       0.59715631       3.77750664      -1.46620062       0.59715631
H       -2.77089840       0.97184420       1.16697400       0.13286614       0.32180040       0.35433420      -1.43736607      -2.87299640      -2.37336504      -1.57023221      -3.19479680      -2.72769924      -1.57023221      -3.19479680      -2.72769924
H       -3.82804110       0.30750900      -0.65436370       0.06661083      -0.03136696       0.04603155       1.09585953      -0.48112188       1.04459558       1.02924870      -0.44975492       0.99856403       1.02924870      -0.44975492       0.99856403
H       -0.02866530       0.63800410      -0.77500210      -0.03665488       0.03489233       0.02968507      -1.48758147       0.53339077      -0.50129342      -1.45092659       0.49849844      -0.53097849      -1.45092659       0.49849844      -0.53097849
H        0.32471680      -0.15104290       0.47521950      -0.04149837       0.04384461       0.01544013      -3.63938502       0.92500359      -0.12867663      -3.59788665       0.88115898      -0.14411676      -3.59788665       0.88115898      -0.14411676
6
Properties=species:S:1:pos:R:3:REF_forces:R:3:x_forces:R:3:cas_forces:R:3:forces:R:3 state=0 data_path=dataset_delta/casscf_2nd_part/CAS_grad_x_points_with_old_xyz.json name=00418-5K_run18_step119 REF_energy=-5.002151745009087 x_energy=-2568.188793460399 cas_energy=-2563.18664171539 energy=-2563.18664171539 pbc="F F F"
C       -3.35961200       0.38131120       0.16807490       0.26789215       0.41095583       0.08097295       0.45161137      -3.65932552      -1.21653514       0.18371922      -4.07028135      -1.29750809       0.18371922      -4.07028135      -1.29750809
N       -0.39752730       0.01003710       0.07956690      -0.02545645      -0.14644888      -0.05798118      -0.19634987       0.25151860      -6.95359376      -0.17089342       0.39796748      -6.89561258      -0.17089342       0.39796748      -6.89561258
H       -3.19073850       1.46941870       0.41579910      -0.01295878      -0.01928261       0.01645572      -0.31768250      -0.47545440      -0.03411669      -0.30472372      -0.45617179      -0.05057241      -0.30472372      -0.45617179      -0.05057241
H       -3.60752220      -0.86156770      -0.17056790      -0.06995616      -0.37862708      -0.09180640       0.70181423       3.96322356       1.14809196       0.77177039       4.34185064       1.23989836       0.77177039       4.34185064       1.23989836
H       -0.36502600       0.99651490      -0.42147610      -0.07164557       0.06882534      -0.00851059       0.27226606      -1.87568047       0.34795426       0.34391163      -1.94450581       0.35646485       0.34391163      -1.94450581       0.35646485
H       -0.57305810       0.33022790       0.92826770      -0.08782492       0.06450804       0.06083860      -0.91160902       1.79564886       6.70816847      -0.82378410       1.73114082       6.64732987      -0.82378410       1.73114082       6.64732987
6
Properties=species:S:1:pos:R:3:REF_forces:R:3:x_forces:R:3:cas_forces:R:3:forces:R:3 state=0 data_path=dataset_delta/casscf_2nd_part/CAS_grad_x_points_with_old_xyz.json name=00581-fromIvanD REF_energy=-4.929252113980056 x_energy=-2571.064435293606 cas_energy=-2566.135183179626 energy=-2566.135183179626 pbc="F F F"
C       -2.84254590       0.35138560       0.24440690       0.18379795       0.36834089      -0.60879007       4.90712471       2.65042966      -1.35870430       4.72332676       2.28208877      -0.74991423       4.72332676       2.28208877      -0.74991423
N       -0.85826440       0.02238220       0.07383190       0.03959136      -0.01818811       0.12127536      -1.93533362       0.84741294      -2.30311417      -1.97492498       0.86560105      -2.42438953      -1.97492498       0.86560105      -2.42438953
H       -3.05609550       1.46061230       0.37974660       0.01203064      -0.20252278       0.33860982      -0.33701622      -1.01954147       0.64261648      -0.34904686      -0.81701869       0.30400666      -0.34904686      -0.81701869       0.30400666
H       -3.46473050      -0.28004730      -0.36765870       0.10693890      -0.05245808       0.18142726      -0.80341087      -1.31507180       0.10206612      -0.91034977      -1.26261372      -0.07936114      -0.91034977      -1.26261372      -0.07936114
H       -0.62719900       0.70038500      -0.87479440      -0.14677700      -0.15564137       0.00369424      -1.20401582      -1.49620084       2.70056854      -1.05723882      -1.34055947       2.69687430      -1.05723882      -1.34055947       2.69687430
H       -0.34177550       0.53464270       0.82258440      -0.19833022       0.05984850      -0.03391533      -0.63009655       0.33235054       0.21886862      -0.43176633       0.27250204       0.25278395      -0.43176633       0.27250204       0.25278395
6
Properties=species:S:1:pos:R:3:REF_forces:R:3:x_forces:R:3:cas_forces:R:3:forces:R:3 state=0 data_path=dataset_delta/casscf_2nd_part/CAS_grad_x_points_with_old_xyz.json name=00319-0K_run13_step435 REF_energy=-4.9098180144392245 x_energy=-2571.9939412248314 cas_energy=-2567.084123210392 energy=-2567.084123210392 pbc="F F F"
C       -2.47519200       0.35348380       0.28887230      -0.13401037       0.10237585      -0.07154694      -4.04435699      -2.22513754      -5.11286862      -3.91034662      -2.32751339      -5.04132168      -3.91034662      -2.32751339      -5.04132168
N       -1.23397230       0.06954560       0.13300710      -0.04043811      -0.09674809      -0.21260461     -11.34020163     -18.97057299      -6.72639389     -11.29976352     -18.87382490      -6.51378928     -11.29976352     -18.87382490      -6.51378928
H       -3.18700190       1.35147300       0.40046550       0.12720844      -0.24796718       0.10033411       2.42147846      -2.14303614       0.77616329       2.29427002      -1.89506896       0.67582918       2.29427002      -1.89506896       0.67582918
H       -2.85710320      -0.48411960      -0.48763270       0.19501277       0.20141703       0.01632377      -1.58672224       1.58775716       2.42257976      -1.78173501       1.38634013       2.40625599      -1.78173501       1.38634013       2.40625599
H       -0.77196560      -0.96345060      -0.72054510      -0.07416369       0.02396316       0.24021351      -1.58571174       3.86670028       3.59219731      -1.51154805       3.84273712       3.35198380      -1.51154805       3.84273712       3.35198380
H       -0.77438040       0.68328770       0.28933250      -0.07367160       0.01713360      -0.07271582      16.13545157      17.88446360       5.04832616      16.20912317      17.86733000       5.12104198      16.20912317      17.86733000       5.12104198
6
Properties=species:S:1:pos:R:3:REF_forces:R:3:x_forces:R:3:cas_forces:R:3:forces:R:3 state=0 data_path=dataset_delta/casscf_2nd_part/CAS_grad_x_points_with_old_xyz.json name=00315-0K_run11_step205 REF_energy=-5.0399127940718245 x_energy=-2570.303181686793 cas_energy=-2565.263268892721 energy=-2565.263268892721 pbc="F F F"
C       -3.06441090       0.38955000       0.12199730       0.04670049      -0.19464522       0.03640869       1.26923921      -0.33120557       2.20669455       1.22253872      -0.13656035       2.17028586       1.22253872      -0.13656035       2.17028586
N       -0.71901050       0.21361400       0.15770040       0.07866122      -0.24410762      -0.14163330      -0.01904509      -2.77295466      -0.58935556      -0.09770631      -2.52884704      -0.44772226      -0.09770631      -2.52884704      -0.44772226
H       -3.42747020      -0.12493800      -0.85394640       0.01640451       0.12133717       0.05848697       0.97545856       0.49618531       1.27174681       0.95905405       0.37484814       1.21325984       0.95905405       0.37484814       1.21325984
H       -3.08207340       0.30696920       1.33697760       0.00568498       0.07013410      -0.10186834       0.03001496       0.12033108      -2.89189041       0.02432998       0.05019698      -2.79002207       0.02432998       0.05019698      -2.79002207
H        0.24450250      -0.19318310       0.57175980      -0.05232043       0.11718825       0.05287985      -2.08980443       1.73110049       0.07641592      -2.03748400       1.61391224       0.02353607      -2.03748400       1.61391224       0.02353607
H       -0.68588650      -0.36139980      -0.72776470      -0.09508557       0.12997542       0.09580789      -0.16581801       0.75642545      -0.07352955      -0.07073244       0.62645003      -0.16933744      -0.07073244       0.62645003      -0.16933744
6
Properties=species:S:1:pos:R:3:REF_forces:R:3:x_forces:R:3:cas_forces:R:3:forces:R:3 state=0 data_path=dataset_delta/casscf_2nd_part/CAS_grad_x_points_with_old_xyz.json name=00337-0K_run24_step66 REF_energy=-5.101011928852586 x_energy=-2571.6525328058724 cas_energy=-2566.55152087702 energy=-2566.55152087702 pbc="F F F"
C       -2.92971250       0.36001860       0.22071150      -0.67103003       0.05177908       0.07754596       3.39067788      -1.14399953      -1.86959189       4.06170791      -1.19577861      -1.94713785       4.06170791      -1.19577861      -1.94713785
N       -0.78269440       0.08335600       0.05568190       0.55771655       0.04077215      -0.09125714      -7.09864173       2.01702426       3.60837371      -7.65635828       1.97625211       3.69963085      -7.65635828       1.97625211       3.69963085
H       -3.14858060       1.07442650       0.99770840       0.12781211      -0.04068582      -0.07515617       0.33560432       0.41711401       0.88024994       0.20779221       0.45779983       0.95540611       0.20779221       0.45779983       0.95540611
H       -3.58100900      -0.07378470      -0.60365290       0.14470475       0.02245962       0.04075066       1.15928171       0.04828676       0.61787969       1.01457696       0.02582714       0.57712903       1.01457696       0.02582714       0.57712903
H       -0.48378040      -0.24426530      -0.78762590      -0.07361941      -0.01808109       0.04171125       1.55596413      -1.50199225      -3.50124380       1.62958354      -1.48391116      -3.54295505       1.62958354      -1.48391116      -3.54295505
H       -0.35463640       0.65717180       0.77424740      -0.08703879      -0.05624563       0.00672740       0.65565887       0.16356506       0.26465431       0.74269766       0.21981069       0.25792691       0.74269766       0.21981069       0.25792691
6
Properties=species:S:1:pos:R:3:REF_forces:R:3:x_forces:R:3:cas_forces:R:3:forces:R:3 state=0 data_path=dataset_delta/casscf_1st_part/cas_main.json REF_energy=-4.979720088409977 x_energy=-2568.7260318117033 cas_energy=-2563.7463117232933 energy=-2563.7463117232933 pbc="F F F"
C       -3.13770910       0.27790160       0.20798440      -0.18025378       0.25559681       0.04426014      -0.33672825       2.31445350      -3.26942444      -0.15647447       2.05885669      -3.31368458      -0.15647447       2.05885669      -3.31368458
N       -0.60743230       0.11447790      -0.02780040      -0.47470125       0.10201604       0.58321473      -1.23771568       2.47109232       3.28583445      -0.76301443       2.36907628       2.70261972      -0.76301443       2.36907628       2.70261972
H       -2.96744160       0.01107790       1.27282710       0.26115768      -0.16471896      -0.16171675       0.12071778       0.24277211      -0.05269661      -0.14043990       0.40749107       0.10902014      -0.14043990       0.40749107       0.10902014
H       -3.41305900       1.17557020      -0.68559370       0.17588323      -0.15956869      -0.03699966       1.00516627      -2.50190062       2.69216916       0.82928304      -2.34233193       2.72916882       0.82928304      -2.34233193       2.72916882
H       -1.06267380      -0.53697380       0.69297650       0.09820718       0.00976016      -0.19678185       1.56773480       0.12824597      -0.36722838       1.46952762       0.11848581      -0.17044653       1.46952762       0.11848581      -0.17044653
H       -0.06211310       0.91286210       0.67273460       0.12039116      -0.04292159      -0.23186178      -1.11849069      -2.65449951      -2.28853935      -1.23888185      -2.61157792      -2.05667757      -1.23888185      -2.61157792      -2.05667757
6
Properties=species:S:1:pos:R:3:REF_forces:R:3:x_forces:R:3:cas_forces:R:3:forces:R:3 state=0 data_path=dataset_delta/casscf_1st_part/cas_main.json REF_energy=-4.629553399764973 x_energy=-2570.2997664071754 cas_energy=-2565.6702130074104 energy=-2565.6702130074104 pbc="F F F"
C       -2.61020900       0.21910770       0.30388480      -0.03876271      -0.25281947       0.02164604       3.74977869       2.09185478      -0.73312688       3.78854140       2.34467425      -0.75477292       3.78854140       2.34467425      -0.75477292
N       -1.34976720       0.10215610      -0.04283380      -0.23163679       0.20592482       0.11134126       1.25200680      -3.40837360       1.14902398       1.48364359      -3.61429842       1.03768272       1.48364359      -3.61429842       1.03768272
H       -2.42096220       1.37494140       0.33326670       0.19960132      -0.12623468      -0.07292150      -1.89597861      -0.36546697       0.27791735      -2.09557993      -0.23923229       0.35083885      -2.09557993      -0.23923229       0.35083885
H       -3.60137050      -0.29821190       0.52387370       0.09505251       0.12795842      -0.03710023       1.16957363      -0.09882288      -0.35618708       1.07452112      -0.22678130      -0.31908685       1.07452112      -0.22678130      -0.31908685
H       -0.17681360      -0.45538980       0.02117480       0.03734569       0.07936624       0.00767928      -4.33315129       1.82176665      -0.34376634      -4.37049698       1.74240041      -0.35144562      -4.37049698       1.74240041      -0.35144562
H        1.36721110       0.55905110       1.02191600      -0.05639671      -0.03423030      -0.03127543       0.06297409      -0.04099295       0.00550838       0.11937080      -0.00676265       0.03678381       0.11937080      -0.00676265       0.03678381
6
Properties=species:S:1:pos:R:3:REF_forces:R:3:x_forces:R:3:cas_forces:R:3:forces:R:3 state=0 data_path=dataset_delta/casscf_1st_part/cas_CN.json REF_energy=-5.082920698151156 x_energy=-2567.972022909039 cas_energy=-2562.889102210888 energy=-2562.889102210888 pbc="F F F"
C       -4.32780500       0.58287980       0.27253410       0.21016454       0.08570822      -0.14169072      -0.55970580      -1.70749622      -1.75633417      -0.76987034      -1.79320444      -1.61464345      -0.76987034      -1.79320444      -1.61464345
N        0.28134120       0.40545890      -0.65542450      -0.15718239       0.12901009      -0.03042139      -2.70083583       1.79642241      -1.71000711      -2.54365344       1.66741232      -1.67958572      -2.54365344       1.66741232      -1.67958572
H       -3.89896630       1.35073720       0.89956460      -0.10569228      -0.09816194       0.01172730       0.56647053       0.79584370       0.56724094       0.67216281       0.89400564       0.55551364       0.67216281       0.89400564       0.55551364
H       -4.20155600      -0.05509900      -0.69026800      -0.07953262       0.00906586       0.12777597      -0.02859396       0.86497537       1.20892308       0.05093866       0.85590951       1.08114711       0.05093866       0.85590951       1.08114711
H       -0.47707380       0.89853240      -1.34564470       0.10075325      -0.03915316       0.14270099       1.65631409      -2.15100548      -1.13896258       1.55556084      -2.11185232      -1.28166357       1.55556084      -2.11185232      -1.28166357
H       -0.22694830       1.18081480      -0.17618450       0.03161143      -0.08652179      -0.11004920       1.06647290       0.40120751       2.82918279       1.03486147       0.48772930       2.93923199       1.03486147       0.48772930       2.93923199
6
Properties=species:S:1:pos:R:3:REF_forces:R:3:x_forces:R:3:cas_forces:R:3:forces:R:3 state=0 data_path=dataset_delta/casscf_1st_part/cas_main.json REF_energy=-4.574863621079658 x_energy=-2571.1179046247576 cas_energy=-2566.543041003678 energy=-2566.543041003678 pbc="F F F"
C       -2.49284420       0.28889600       0.14343660      -0.31540265       0.22688755      -0.19776616       2.13847012       2.01930750       0.77773742       2.45387277       1.79241995       0.97550358       2.45387277       1.79241995       0.97550358
N       -1.21106460      -0.02927780       0.19053440       0.07484140       0.10188440       0.01761895      -2.98176209       0.59624195      -1.77923689      -3.05660349       0.49435755      -1.79685584      -3.05660349       0.49435755      -1.79685584
H       -2.71742250       0.84320660       1.14979940       0.12954068      -0.08791856      -0.09856360      -0.17569979      -1.10916036      -0.84696988      -0.30524047      -1.02124180      -0.74840628      -0.30524047      -1.02124180      -0.74840628
H       -3.37461700       0.62742820      -0.67784780       0.20705948      -0.10269281       0.21413975       2.34368746      -1.65054849       1.15936511       2.13662798      -1.54785568       0.94522536       2.13662798      -1.54785568       0.94522536
H       -0.27203620      -0.19888940      -0.31029770      -0.02924495       0.01732492       0.04654157      -1.49001749      -0.07952767       0.64698705      -1.46077254      -0.09685259       0.60044548      -1.46077254      -0.09685259       0.60044548
H       -0.64301390       2.33521590      -0.06086020      -0.06797030      -0.15541294       0.01697170       0.16414546       0.22375963       0.04105939       0.23211576       0.37917257       0.02408769       0.23211576       0.37917257       0.02408769
6
Properties=species:S:1:pos:R:3:REF_forces:R:3:x_forces:R:3:cas_forces:R:3:forces:R:3 state=0 data_path=dataset_delta/casscf_1st_part/cas_main.json REF_energy=-4.7373583944477105 x_energy=-2571.2526821850884 cas_energy=-2566.5153237906407 energy=-2566.5153237906407 pbc="F F F"
C       -2.47386930       0.30604980       0.24431340      -0.26560258       0.39109389       0.01576425       1.26032093       1.97299550      -3.69799780       1.52592351       1.58190161      -3.71376205       1.52592351       1.58190161      -3.71376205
N       -1.22171410      -0.01104760       0.07046140       0.44733724       0.46600115      -0.17473089      -1.50029424       1.57054650       0.56052300      -1.94763148       1.10454535       0.73525389      -1.94763148       1.10454535       0.73525389
H       -3.06378970       0.62419520       1.13623530       0.09175853      -0.08835982      -0.11921695       0.09371281      -1.29231867       0.38657788       0.00195428      -1.20395885       0.50579483       0.00195428      -1.20395885       0.50579483
H       -2.89662170       0.77489610      -0.85898210       0.06787996      -0.14378842       0.15111648       0.56294488      -1.43738999       2.83876529       0.49506492      -1.29360157       2.68764881       0.49506492      -1.29360157       2.68764881
H       -0.22485030      -0.04180550       0.37834180      -0.11030570      -0.12548198       0.04006635      -0.79405750      -0.56365255       0.48259533      -0.68375180      -0.43817057       0.44252898      -0.68375180      -0.43817057       0.44252898
H       -0.86124760       1.89791520      -0.21821280      -0.22137741      -0.49952668       0.08705203       0.38706315      -0.25024266      -0.57041244       0.60844056       0.24928402      -0.65746447       0.60844056       0.24928402      -0.65746447
6
Properties=species:S:1:pos:R:3:REF_forces:R:3:x_forces:R:3:cas_forces:R:3:forces:R:3 state=0 data_path=dataset_delta/casscf_1st_part/cas_main.json REF_energy=-4.577891170092698 x_energy=-2568.63549638207 cas_energy=-2564.0576052119773 energy=-2564.0576052119773 pbc="F F F"
C       -2.54205900       0.38033440       0.06923220       0.04685260      -0.01562883      -0.11427042       1.12445051      -1.87130019       3.74151403       1.07759791      -1.85567136       3.85578445       1.07759791      -1.85567136       3.85578445
N       -1.11167510      -0.03487510       0.28050610      -0.10838544       0.34728328      -0.03670287      -3.39682425      -0.66559196      -7.15013096      -3.28843881      -1.01287524      -7.11342809      -3.28843881      -1.01287524      -7.11342809
H       -2.69613180       0.63459890       1.14538890       0.10550696      -0.13510098      -0.08738055      -1.30846849       1.51387651      -0.57813270      -1.41397545       1.64897749      -0.49075215      -1.41397545       1.64897749      -0.49075215
H       -3.53052700      -0.03661460      -0.50595910       0.10114239       0.08091491       0.09658290       2.66503779       0.77930569       0.32522519       2.56389540       0.69839078       0.22864229       2.56389540       0.69839078       0.22864229
H       -1.05994690      -0.58369150      -0.91281940      -0.05563699       0.01104456       0.12892121       1.36421062       1.77506687       3.64462102       1.41984761       1.76402231       3.51569981       1.41984761       1.76402231       3.51569981
H       -0.62779980       2.40283790       0.12883100      -0.08965930      -0.28847182       0.01287260      -0.44858596      -1.53131579       0.01692629      -0.35892666      -1.24284397       0.00405369      -0.35892666      -1.24284397       0.00405369
6
Properties=species:S:1:pos:R:3:REF_forces:R:3:x_forces:R:3:cas_forces:R:3:forces:R:3 state=0 data_path=dataset_delta/casscf_1st_part/cas_CN.json REF_energy=-5.010366753712788 x_energy=-2568.378538735533 cas_energy=-2563.36817198182 energy=-2563.36817198182 pbc="F F F"