6
Properties=species:S:1:pos:R:3:REF_forces:R:3:x_forces:R:3:cas_forces:R:3:forces:R:3 state=0 data_path=dataset_delta/casscf_2nd_part/CAS_grad_x_points_with_old_xyz.json name=00390-5K_run07_step141 REF_energy=-5.2414728749154165 x_energy=-2568.1492406680177 cas_energy=-2562.9077677931023 energy=-2562.9077677931023 pbc="F F F"
C       -3.80535420       0.44682220       0.25477890       0.12441537      -0.36434627       0.17649942       6.99749144       2.34960172       4.60684360       6.87307607       2.71394799       4.43034418       6.87307607       2.71394799       4.43034418
N        0.01584070       0.08009540      -0.04267230      -0.41602715      -1.68847872       1.22893070      -0.35231798      -0.63743422       0.23062108       0.06370917       1.05104450      -0.99830962       0.06370917       1.05104450      -0.99830962
H       -3.37494580       0.55020270       1.24270880      -0.26449590       0.07967194      -0.33718642      -0.10102662      -0.00079205       0.59306577       0.16346928      -0.08046399       0.93025219       0.16346928      -0.08046399       0.93025219
H       -4.50707910       0.20073920      -0.32581550       0.30431760       0.21386178       0.22635141      -6.60677583      -2.38344947      -5.17705184      -6.91109343      -2.59731125      -5.40340325      -6.91109343      -2.59731125      -5.40340325
H       -0.09681770      -0.85695280      -0.53826620       0.18239499       0.38035581      -1.29577594      -0.01902827       0.85299527       0.47479491      -0.20142326       0.47263946       1.77057085      -0.20142326       0.47263946       1.77057085
H       -0.21373020       0.26288150       0.97492190       0.06949060       1.37922990       0.00195464       0.08175276      -0.18062680      -0.72749971       0.01226216      -1.55985670      -0.72945435       0.01226216      -1.55985670      -0.72945435
6
Properties=species:S:1:pos:R:3:REF_forces:R:3:x_forces:R:3:cas_forces:R:3:forces:R:3 state=0 data_path=dataset_delta/casscf_2nd_part/CAS_grad_x_points_with_old_xyz.json name=00475-fromIvanD REF_energy=-4.6181587669175315 x_energy=-2571.4819747129914 cas_energy=-2566.863815946074 energy=-2566.863815946074 pbc="F F F"
C       -1.98000280       0.78519970      -0.71336810       0.09571153       0.20301421       0.21762402      -1.19719314       0.33957884      -2.09082521      -1.29290467       0.13656463      -2.30844923      -1.29290467       0.13656463      -2.30844923
N       -1.48800400       0.19523500       0.20412020      -0.19917596       0.15094759      -0.25918860      -0.66691691      -0.93343542      -1.00009287      -0.46774095      -1.08438301      -0.74090427      -0.46774095      -1.08438301      -0.74090427
H       -3.28112470      -2.36093430       5.05815710       0.07826640      -0.07230709       0.08969566      -3.62795338       3.36054362      -4.18406437      -3.70621978       3.43285071      -4.27376003      -3.70621978       3.43285071      -4.27376003
H       -2.92329640      -2.69305900       5.47196690      -0.07808744       0.07251427      -0.09012915       3.62801164      -3.35900445       4.18152155       3.70609908      -3.43151872       4.27165070       3.70609908      -3.43151872       4.27165070
H       -0.88834470       0.07369920       0.97343030      -0.00649173      -0.08138282      -0.08109177       1.49830431      -0.76949066       2.09659086       1.50479604      -0.68810784       2.17768263       1.50479604      -0.68810784       2.17768263
H       -1.90468300      -0.64459180      -0.83927490       0.10973874      -0.27286841       0.12259731       0.36570901       1.36172581       0.99637752       0.25597027       1.63459422       0.87378021       0.25597027       1.63459422       0.87378021
6
Properties=species:S:1:pos:R:3:REF_forces:R:3:x_forces:R:3:cas_forces:R:3:forces:R:3 state=0 data_path=dataset_delta/casscf_2nd_part/CAS_grad_x_points_with_old_xyz.json name=00016-5K_run82_step382 REF_energy=-4.6086054223560495 x_energy=-2569.0490153842597 cas_energy=-2564.4404099619037 energy=-2564.4404099619037 pbc="F F F"
C       -2.53699260       0.27211700       0.16729790      -1.02922855      -0.02548087       0.80526145       3.12185349      -0.17425843      -0.98236897       4.15108204      -0.14877756      -1.78763042       4.15108204      -0.14877756      -1.78763042
N       -1.17004960       0.24419330      -0.00162550       1.23149654      -1.03176240       0.01811471      -5.11606301      -0.52795515       2.39237316      -6.34755955       0.50380725       2.37425845      -6.34755955       0.50380725       2.37425845
H       -2.93820620      -0.10703150       1.88826160       0.18643611       0.30777203      -0.60252378       0.42795321       0.88561886      -2.39206812       0.24151710       0.57784683      -1.78954434       0.24151710       0.57784683      -1.78954434
H       -3.33375960       0.15807580      -0.72478630       0.17545838      -0.22805615       0.05344797       1.31817713      -0.31730424       2.14353576       1.14271875      -0.08924809       2.09008779       1.14271875      -0.08924809       2.09008779
H       -0.86629760      -1.54234820       0.29799660      -0.29370032       1.02669409      -0.40195198       0.39713818       1.16720477      -0.70566698       0.69083850       0.14051068      -0.30371500       0.69083850       0.14051068      -0.30371500
H       -0.51249380       0.83594660       0.58529860      -0.26937396      -0.05256581       0.12356410      -0.14797080      -1.03670492      -0.45989238       0.12140316      -0.98413911      -0.58345648       0.12140316      -0.98413911      -0.58345648
6
Properties=species:S:1:pos:R:3:REF_forces:R:3:x_forces:R:3:cas_forces:R:3:forces:R:3 state=0 data_path=dataset_delta/casscf_2nd_part/CAS_grad_x_points_with_old_xyz.json name=00476-fromIvanD REF_energy=-4.934113739118857 x_energy=-2568.2128021256362 cas_energy=-2563.2786883865174 energy=-2563.2786883865174 pbc="F F F"
C       -3.47484170       0.03414460       0.36676200       0.14060440       0.60164874      -0.65250306       1.55300448      -0.67721181      -1.82319356       1.41240008      -1.27886055      -1.17069050       1.41240008      -1.27886055      -1.17069050
N       -0.32451620       0.31082440      -0.10423910      -0.19196453      -0.01195408       0.06214635      -0.62977372       2.27960127       1.68352053      -0.43780919       2.29155535       1.62137418      -0.43780919       2.29155535       1.62137418
H       -2.94844610      -0.88016400      -0.30407890       0.13378872      -0.43060823       0.17160204      -1.96475871       2.37943346       2.07289006      -2.09854743       2.81004169       1.90128802      -2.09854743       2.81004169       1.90128802
H       -4.15759830       0.88960870       0.81745850       0.10383266      -0.18148484       0.40439001       0.93420105      -1.62294194      -0.51595190       0.83036839      -1.44145710      -0.92034191       0.83036839      -1.44145710      -0.92034191
H       -0.68285850      -0.66292380      -0.04877090      -0.16119669      -0.16145695      -0.09912044       0.37103114      -0.06860331       0.92283857       0.53222783       0.09285364       1.02195901       0.53222783       0.09285364       1.02195901
H       -0.23626500       0.90515960       0.88165370      -0.02503130       0.18381673       0.11380264      -0.26367097      -2.29031629      -2.33978617      -0.23863967      -2.47413302      -2.45358881      -0.23863967      -2.47413302      -2.45358881
6
Properties=species:S:1:pos:R:3:REF_forces:R:3:x_forces:R:3:cas_forces:R:3:forces:R:3 state=0 data_path=dataset_delta/casscf_2nd_part/CAS_grad_x_points_with_old_xyz.json name=00382-0K_run47_step314 REF_energy=-4.960010852722917 x_energy=-2571.5285075665197 cas_energy=-2566.568496713797 energy=-2566.568496713797 pbc="F F F"
C       -2.68438160       0.25676420      -0.06503860      -0.33432889       0.07563690      -0.14928642       2.02436368      -0.99436049       0.32880221       2.35869257      -1.06999739       0.47808863       2.35869257      -1.06999739       0.47808863
N       -0.97787640       0.15543000       0.30253980      -0.00154750      -0.10103119       0.04142261      -4.05939358      -2.28540785       0.63888555      -4.05784608      -2.18437666       0.59746294      -4.05784608      -2.18437666       0.59746294
H       -2.89228100       1.40082160      -0.10474970       0.02640570      -0.12168081       0.08072371       0.68507671      -1.60320373      -0.29848201       0.65867101      -1.48152292      -0.37920572       0.65867101      -1.48152292      -0.37920572
H       -3.83013310      -0.60454540      -0.42685460       0.27267052       0.14297143       0.05570011       4.01848897       1.89010097       1.59920150       3.74581845       1.74712954       1.54350139       3.74581845       1.74712954       1.54350139
H       -0.66560990       0.95076150      -0.12564530      -0.00331213      -0.11321193      -0.02938909       0.63027621       3.98141839      -1.53664378       0.63358834       4.09463032      -1.50725469       0.63358834       4.09463032      -1.50725469
H        0.00504030      -0.19021150       0.76507380       0.04082830       0.11703536      -0.00003601      -3.29809599      -0.98882753      -0.73262855      -3.33892429      -1.10586289      -0.73259254      -3.33892429      -1.10586289      -0.73259254
6
Properties=species:S:1:pos:R:3:REF_forces:R:3:x_forces:R:3:cas_forces:R:3:forces:R:3 state=0 data_path=dataset_delta/casscf_2nd_part/CAS_grad_x_points_with_old_xyz.json name=00003-5K_run86_step186 REF_energy=-4.899473592219238 x_energy=-2569.1366706403314 cas_energy=-2564.237197048112 energy=-2564.237197048112 pbc="F F F"
C       -3.38003920       0.31704950       0.33331260       0.14827634      -0.16233282      -0.02443822       1.47168377       0.09008123      -1.44152324       1.32340743       0.25241405      -1.41708502       1.32340743       0.25241405      -1.41708502
N       -0.31197470      -0.11221780      -0.12178930      -0.02542914       0.04285104      -0.00892856      -0.18190093      -1.62350943       2.24751899      -0.15647179      -1.66636047       2.25644755      -0.15647179      -1.66636047       2.25644755
H       -3.74768710      -0.49471940       0.88118630       0.02363153       0.09826478      -0.02263245      -1.47101827      -1.30253757       2.46458270      -1.49464980      -1.40080235       2.48721515      -1.49464980      -1.40080235       2.48721515
H       -2.86384650      -0.01440460      -0.57061100      -0.04764743       0.05164442       0.02149333       0.57532546       1.01733834      -1.13633605       0.62297289       0.96569392      -1.15782938       0.62297289       0.96569392      -1.15782938
H        0.64841290      -0.18419260       0.30286060      -0.02077811      -0.03993964       0.05647115      -0.55080274      -0.93915957       0.43814342      -0.53002463      -0.89921993       0.38167227      -0.53002463      -0.89921993       0.38167227
H       -0.05512470       0.64348890      -0.67573290      -0.07809134       0.00949484      -0.02190349       0.15667455       2.75776962      -2.57232406       0.23476589       2.74827478      -2.55042057       0.23476589       2.74827478      -2.55042057
6
Properties=species:S:1:pos:R:3:REF_forces:R:3:x_forces:R:3:cas_forces:R:3:forces:R:3 state=0 data_path=dataset_delta/casscf_2nd_part/CAS_grad_x_points_with_old_xyz.json name=00134-5K_run63_step333 REF_energy=-4.552869814539463 x_energy=-2569.325780450662 cas_energy=-2564.7729106361226 energy=-2564.7729106361226 pbc="F F F"
C       -2.84680570       0.66732330       0.37757770       0.05057091      -0.03934405       0.19674067       4.96290789      -5.81412230       1.99758142       4.91233698      -5.77477825       1.80084075       4.91233698      -5.77477825       1.80084075
N       -1.77868120      -0.37851520       0.55991450      -0.32365308       0.09570320      -0.09182142      -4.59260544       5.21546346       0.97112240      -4.26895236       5.11976026       1.06294382      -4.26895236       5.11976026       1.06294382
H       -2.84599740       0.06558600      -0.58951990       0.16193627      -0.08918479       0.01574401      -2.33029968       2.01544503      -1.03265044      -2.49223595       2.10462982      -1.04839445      -2.49223595       2.10462982      -1.04839445
H       -3.40193900       1.23007260       1.30759550       0.06194939      -0.01477007      -0.08029129       1.21588496      -1.14117235      -2.26343227       1.15393557      -1.12640228      -2.18314098       1.15393557      -1.12640228      -2.18314098
H       12.90189640       4.37044140      -9.98431980      -0.00151768      -0.00011188      -0.00038613      -0.00152765      -0.00007055      -0.00037044      -0.00000997       0.00004133       0.00001569      -0.00000997       0.00004133       0.00001569
H       -0.98059530      -0.94537110       0.84932490       0.04767171       0.04712020      -0.04483168       0.74259744      -0.27613069       0.32290348       0.69492573      -0.32325089       0.36773516       0.69492573      -0.32325089       0.36773516
6
Properties=species:S:1:pos:R:3:REF_forces:R:3:x_forces:R:3:cas_forces:R:3:forces:R:3 state=0 data_path=dataset_delta/casscf_2nd_part/CAS_grad_x_points_with_old_xyz.json name=00234-5K_run60_step170 REF_energy=-4.484026177061878 x_energy=-2569.5150955317968 cas_energy=-2565.031069354735 energy=-2565.031069354735 pbc="F F F"
C       -2.19917070       0.68447000       0.10615750       0.05565382      -0.03368430      -0.05394513     -15.46793215      11.28219955      -0.72489570     -15.52358597      11.31588385      -0.67095057     -15.52358597      11.31588385      -0.67095057
N       -1.30046390       0.05573310       0.11371040      -0.20509329      -0.36594886       0.25242581      18.60958607      -9.58961408      -0.48850403      18.81467936      -9.22366522      -0.74092984      18.81467936      -9.22366522      -0.74092984
H       -4.09817120      -1.55668660       0.24186340       0.10963208       0.20128328       0.13276956       1.49317866       3.00556300       2.63031864       1.38354658       2.80427972       2.49754908       1.38354658       2.80427972       2.49754908
H       -3.73049550      -0.79364120       0.89997850      -0.02560792      -0.11626561      -0.14875565      -1.65686677      -3.13795873      -2.50721905      -1.63125885      -3.02169312      -2.35846340      -1.63125885      -3.02169312      -2.35846340
H       -0.51360580       0.93686090      -0.69616170       0.08463418       0.21246846      -0.11604672      -2.36804049      -2.34149251       2.21321729      -2.45267467      -2.55396097       2.32926401      -2.45267467      -2.55396097       2.32926401
H       -0.79010230      -0.67438230       0.71970290      -0.01930510       0.10228730      -0.06645009      -0.61001155       0.78144305      -1.12291936      -0.59070645       0.67915575      -1.05646927      -0.59070645       0.67915575      -1.05646927
6
Properties=species:S:1:pos:R:3:REF_forces:R:3:x_forces:R:3:cas_forces:R:3:forces:R:3 state=0 data_path=dataset_delta/casscf_2nd_part/CAS_grad_x_points_with_old_xyz.json name=00170-5K_run94_step145 REF_energy=-4.70382390194527 x_energy=-2568.210670927461 cas_energy=-2563.5068470255155 energy=-2563.5068470255155 pbc="F F F"
C       -3.80859380       0.47662010       0.06368150       0.07163526       0.27194837       0.02846897       0.92974183      -3.67376494       0.74289481       0.85810657      -3.94571331       0.71442584       0.85810657      -3.94571331       0.71442584
N       -0.02693580       0.05179510       0.22057880      -0.08952636      -0.09526154      -0.08054950      -1.38434103       0.66521267       4.19926880      -1.29481467       0.76047421       4.27981830      -1.29481467       0.76047421       4.27981830
H       -4.03981710       1.47627320       0.02170020       0.00044237       0.04488176       0.02239367      -0.57830486       3.36472634      -0.41261355      -0.57874723       3.31984458      -0.43500722      -0.57874723       3.31984458      -0.43500722
H       -3.64709620      -0.59078630      -0.15130490       0.04324606      -0.33442949      -0.04295416       0.06731061       0.31354796      -0.19670884       0.02406455       0.64797745      -0.15375468       0.02406455       0.64797745      -0.15375468
H       -0.19215340       0.13260890      -0.74367580      -0.03481599       0.09568914      -0.03999027       0.95200054      -1.05355166      -2.25638688       0.98681653      -1.14924080      -2.21639661       0.98681653      -1.14924080      -2.21639661
H        0.40409290      -0.62343780       0.91785170       0.00906355       0.01730263       0.11253029       0.01363780       0.38396050      -2.07655533       0.00457425       0.36665787      -2.18908562       0.00457425       0.36665787      -2.18908562
6
Properties=species:S:1:pos:R:3:REF_forces:R:3:x_forces:R:3:cas_forces:R:3:forces:R:3 state=0 data_path=dataset_delta/casscf_2nd_part/CAS_grad_x_points_with_old_xyz.json name=00448-5K_run48_step13 REF_energy=-4.85072263774282 x_energy=-2575.809372887294 cas_energy=-2570.9586502495513 energy=-2570.9586502495513 pbc="F F F"
C       -2.52532440       0.32489260       0.23802860      -0.06394380       0.13024207      -0.01454800       2.72500338       0.85596875      -2.47279876       2.78894718       0.72572668      -2.45825076       2.78894718       0.72572668      -2.45825076
N       -1.13985540       0.09472870       0.08488720      -0.08192461       0.01193124      -0.05304633      -2.26352648       2.84780180      -0.40041320      -2.18160187       2.83587056      -0.34736687      -2.18160187       2.83587056      -0.34736687
H       -3.22953250       1.20104390       0.79925720       0.10526566      -0.15263135      -0.09788540       2.50714623      -2.63776595      -0.36576521       2.40188057      -2.48513460      -0.26787981       2.40188057      -2.48513460      -0.26787981
H       -2.98605880      -0.17952180      -0.64759040       0.09644692       0.03730224       0.14291189      -0.51456026       0.11968378       0.79231789      -0.61100718       0.08238154       0.64940600      -0.61100718       0.08238154       0.64940600
H       -0.62496620      -0.01864580      -0.86722510       0.00853071       0.05818534       0.11360209      -1.98086894      -1.24330927       1.18235890      -1.98939965      -1.30149461       1.06875681      -1.98939965      -1.30149461       1.06875681
H       -0.42706080       0.64545950       0.57794670      -0.06437252      -0.08526146      -0.09087665      -0.47319157       0.05738898       1.26445799      -0.40881905       0.14265044       1.35533464      -0.40881905       0.14265044       1.35533464
6
Properties=species:S:1:pos:R:3:REF_forces:R:3:x_forces:R:3:cas_forces:R:3:forces:R:3 state=0 data_path=dataset_delta/casscf_2nd_part/CAS_grad_x_points_with_old_xyz.json name=00434-0K_run49_step71 REF_energy=-4.923098689895141 x_energy=-2570.823603191952 cas_energy=-2565.9005045020567 energy=-2565.9005045020567 pbc="F F F"
C       -2.88762680       0.35456960       0.22789170      -0.21479522       0.38146380      -0.03880667       2.70614737       1.33627404      -2.15085754       2.92094259       0.95481024      -2.11205087       2.92094259       0.95481024      -2.11205087
N       -0.78983080       0.05877610       0.14133630       0.20400239      -0.06571009      -0.09027828      -2.75851247       2.03212214      -1.05078757      -2.96251486       2.09783223      -0.96050929      -2.96251486       2.09783223      -0.96050929
H       -3.54854380       0.58482480       1.14642150       0.07215412      -0.13287388      -0.08990677       0.81763246      -0.69767193      -0.88682044       0.74547834      -0.56479805      -0.79691367       0.74547834      -0.56479805      -0.79691367
H       -2.99381600       0.85646650      -0.86676970       0.03811962      -0.17591164       0.11628189      -0.45950404      -0.97834422       2.41201140      -0.49762366      -0.80243258       2.29572951      -0.49762366      -0.80243258       2.29572951
H       -0.58999480      -0.53363920      -0.70654510      -0.03593186       0.08424595       0.04496661      -0.33537380      -0.76922085       0.50000180      -0.29944194      -0.85346680       0.45503519      -0.29944194      -0.85346680       0.45503519
H       -0.75312820       0.98173170      -0.46295190      -0.06357235      -0.09126233       0.05775562       0.02958718      -0.92320737       1.17646475       0.09315953      -0.83194504       1.11870913       0.09315953      -0.83194504       1.11870913
6
Properties=species:S:1:pos:R:3:REF_forces:R:3:x_forces:R:3:cas_forces:R:3:forces:R:3 state=0 data_path=dataset_delta/casscf_2nd_part/CAS_grad_x_points_with_old_xyz.json name=00477-fromIvanD REF_energy=-4.971940123208697 x_energy=-2568.47494485748 cas_energy=-2563.503004734271 energy=-2563.503004734271 pbc="F F F"
C       -3.39196850       0.48086820       0.11735370       0.38765272       0.21975381      -0.60278690       5.82815919      -5.95226789       2.07024342       5.44050647      -6.17202170       2.67303032       5.44050647      -6.17202170       2.67303032
N       -0.46746170      -0.04656840       0.21036440      -0.53396027      -0.26697311      -0.03673278      -2.90672572      -0.83673550      -7.72707452      -2.37276545      -0.56976239      -7.69034174      -2.37276545      -0.56976239      -7.69034174
H       -2.81361080      -0.66776500       0.17297120      -0.06723776      -0.02497038       0.13631294      -1.60163824       3.16391139      -0.19182750      -1.53440048       3.18888177      -0.32814044      -1.53440048       3.18888177      -0.32814044
H       -4.14379290       1.04471680      -0.23363450      -0.02098302      -0.20652579       0.39263400      -3.70892314       2.63660766      -1.83674589      -3.68794012       2.84313345      -2.22937989      -3.68794012       2.84313345      -2.22937989
H        0.02429910       0.33225590       0.87934080       0.17102131       0.12471344       0.32704496       3.90522996       2.61100590       6.41853131       3.73420865       2.48629246       6.09148635       3.73420865       2.48629246       6.09148635
H        0.09610410       0.50736660      -0.60827940       0.06342891       0.15389719      -0.21656441      -1.51618016      -1.62262641       1.26678098      -1.57960907      -1.77652360       1.48334539      -1.57960907      -1.77652360       1.48334539
6
Properties=species:S:1:pos:R:3:REF_forces:R:3:x_forces:R:3:cas_forces:R:3:forces:R:3 state=0 data_path=dataset_delta/casscf_2nd_part/CAS_grad_x_points_with_old_xyz.json name=00300-5K_run49_step121 REF_energy=-4.443769770321069 x_energy=-2566.107172894356 cas_energy=-2561.663403124035 energy=-2561.663403124035 pbc="F F F"
C       -2.71796270       0.23797620       0.70352090      -0.19352834      -0.08700841      -0.03029171       4.23843781       1.23097610      -2.10414203       4.43196615       1.31798451      -2.07385032       4.43196615       1.31798451      -2.07385032
N       -0.92501250       0.25843240       0.05905730       0.13479053       0.16073635      -0.02147368      -4.60356611      -0.24140773      -3.41435090      -4.73835664      -0.40214408      -3.39287722      -4.73835664      -0.40214408      -3.39287722
H       -2.87192690       1.25035870       0.11301140       0.13272654       0.00440320       0.06841083      -0.38349390      -0.97227081       0.78240094      -0.51622044      -0.97667401       0.71399011      -0.51622044      -0.97667401       0.71399011
H       -3.88223970      -0.87396930      -4.63518310       0.00064210       0.00037045       0.00123204       0.00330161       0.00170243       0.00549774       0.00265951       0.00133198       0.00426570       0.00265951       0.00133198       0.00426570
H       -1.09910270       0.18762420      -1.42418670      -0.01142758      -0.09193171       0.00613872       0.83144834       0.13867817       4.68944909       0.84287592       0.23060988       4.68331037       0.84287592       0.23060988       4.68331037
H       -0.04860060      -0.16822260       0.42136670      -0.07280152       0.01489021      -0.03364447      -0.09572603      -0.15621808       0.03151689      -0.02292451      -0.17110829       0.06516136      -0.02292451      -0.17110829       0.06516136
6
Properties=species:S:1:pos:R:3:REF_forces:R:3:x_forces:R:3:cas_forces:R:3:forces:R:3 state=0 data_path=dataset_delta/casscf_2nd_part/CAS_grad_x_points_with_old_xyz.json name=00239-5K_run90_step313 REF_energy=-4.43944215323063 x_energy=-2566.592471321726 cas_energy=-2562.1530291684953 energy=-2562.1530291684953 pbc="F F F"
C       -2.37235970      -0.12202740      -0.02932420      -0.43093967      -0.16515055      -0.04573299       2.60673386       1.32684601      -1.24158524       3.03767353       1.49199656      -1.19585225       3.03767353       1.49199656      -1.19585225
N       -1.00714480       0.18792980       0.17883220       0.76694549      -0.06460487      -0.65532194      -6.56802375      -1.79276254      -3.86172170      -7.33496924      -1.72815767      -3.20639976      -7.33496924      -1.72815767      -3.20639976
H       -3.71476830       7.83756270       5.16484720      -0.00000413       0.00002326      -0.00000163       0.00003841      -0.00015668      -0.00011920       0.00004254      -0.00017994      -0.00011757       0.00004254      -0.00017994      -0.00011757
H       -3.34665900      -0.29742490      -1.05623620       0.04011791       0.06397817      -0.06855650       2.84843948       0.01453506       2.98828051       2.80832157      -0.04944311       3.05683701       2.80832157      -0.04944311       3.05683701
H       -1.21786100       1.22019450      -0.12838770      -0.08311594      -0.08428809      -0.02689905       0.81492319      -0.24696708       0.56034339       0.89803913      -0.16267899       0.58724244       0.89803913      -0.16267899       0.58724244
H       -0.61055520      -0.37284830      -1.45454050      -0.29319018       0.25001996       0.79654733       0.29770230       0.69848311       1.55483747       0.59089248       0.44846315       0.75829014       0.59089248       0.44846315       0.75829014
6
Properties=species:S:1:pos:R:3:REF_forces:R:3:x_forces:R:3:cas_forces:R:3:forces:R:3 state=0 data_path=dataset_delta/casscf_2nd_part/CAS_grad_x_points_with_old_xyz.json name=00142-0K_run71_step26 REF_energy=-4.783052238412893 x_energy=-2575.738455905661 cas_energy=-2570.955403667248 energy=-2570.955403667248 pbc="F F F"
C       -2.53394710       0.36457110       0.18298500      -0.05730914      -0.09286026       0.10356042       2.03289969      -3.30517810      -0.56834199       2.09020883      -3.21231784      -0.67190241       2.09020883      -3.21231784      -0.67190241
N       -1.13613410       0.12727100       0.07016270      -0.06770477       0.03513671      -0.03679877      -2.23792873       1.55958414       1.19872778      -2.17022396       1.52444743       1.23552655      -2.17022396       1.52444743       1.23552655
H       -2.93916480       0.79262770       1.28945430       0.05574639      -0.06061955      -0.16165356       1.10012267      -0.65115836      -3.26066844       1.04437628      -0.59053881      -3.09901488       1.04437628      -0.59053881      -3.09901488
H       -3.30884480      -0.29118250      -0.71227610       0.10953905       0.12064619       0.08629118       2.39170616       2.34151241       2.87542912       2.28216711       2.22086622       2.78913794       2.28216711       2.22086622       2.78913794
H       -0.50028330      -0.42579680      -0.60953780      -0.01269160       0.03482212       0.10760928      -2.06907830       0.80802831       0.40707061      -2.05638670       0.77320619       0.29946133      -2.05638670       0.77320619       0.29946133
H       -0.49350850       0.64133610       0.75878880      -0.02870248      -0.03982988      -0.09908826      -1.21884404      -0.75549306      -0.65229679      -1.19014156      -0.71566318      -0.55320853      -1.19014156      -0.71566318      -0.55320853
6
Properties=species:S:1:pos:R:3:REF_forces:R:3:x_forces:R:3:cas_forces:R:3:forces:R:3 state=0 data_path=dataset_delta/casscf_2nd_part/CAS_grad_x_points_with_old_xyz.json name=00478-fromIvanD REF_energy=-5.1132769310793265 x_energy=-2572.216616087574 cas_energy=-2567.1033391564947 energy=-2567.1033391564947 pbc="F F F"
C       -2.45370200       0.31752010       0.24795720      -0.38433259       0.13141928       0.07265691      -1.36293196      -1.03117844      -6.21460420      -0.97859937      -1.16259772      -6.28726111      -0.97859937      -1.16259772      -6.28726111
N       -1.14483010       0.12731630       0.03533090       0.37861142       0.20338506      -0.00847561      -2.18146370       0.97051999       2.74241535      -2.56007512       0.76713493       2.75089096      -2.56007512       0.76713493       2.75089096
H       -3.10252890       0.54474500       1.08599210       0.06435003      -0.12600448      -0.11710452       0.61861971       1.18011752       1.12290898       0.55426968       1.30612200       1.24001350       0.55426968       1.30612200       1.24001350
H       -3.02923140       0.34224110      -0.84684410       0.19787507       0.06869412       0.19213239       0.47055243      -1.26753796       2.69512083       0.27267736      -1.33623208       2.50298844       0.27267736      -1.33623208       2.50298844
H       -1.01117580      -0.90813190      -0.65717390      -0.08300554       0.01119256       0.11318852       0.89472335       4.37123761       1.71315846       0.97772889       4.36004505       1.59996994       0.97772889       4.36004505       1.59996994
H       -0.90775060       1.30447950       0.85073170      -0.17339379      -0.28866242      -0.25237028       1.56060477      -4.22313460      -2.05897201       1.73399856      -3.93447218      -1.80660173       1.73399856      -3.93447218      -1.80660173
6