6
Properties=species:S:1:pos:R:3:REF_forces:R:3:x_forces:R:3:cas_forces:R:3:forces:R:3 state=1 data_path=dataset_delta/casscf_2nd_part/CAS_grad_x_points_with_old_xyz.json name=00449-0K_run06_step313 REF_energy=-5.0175013293278425 x_energy=-2569.4170584047324 cas_energy=-2564.3995570754046 energy=-2564.3995570754046 pbc="F F F"
C       -2.63016660       0.39398070       0.17887300      -0.02565497       0.01454681       0.05990569      -1.99180970       0.83475509       1.40762705      -1.96615473       0.82020828       1.34772136      -1.96615473       0.82020828       1.34772136
N       -0.99816520       0.01914690       0.03139530      -0.05438186       0.01502160       0.30597949      -5.25187193     -10.62903594      -4.38350902      -5.19749007     -10.64405754      -4.68948851      -5.19749007     -10.64405754      -4.68948851
H       -3.48029730       0.38241990      -0.66208210       0.10324885      -0.02379982       0.09337463       2.22589961       0.53824989       0.95517246       2.12265076       0.56204971       0.86179783       2.12265076       0.56204971       0.86179783
H       -3.05993080       1.01394130       1.36461100       0.11245527      -0.01713468      -0.18604389       1.30366839      -2.72898160      -2.79350297       1.19121312      -2.71184692      -2.60745908       1.19121312      -2.71184692      -2.60745908
H       -0.91658230       0.78976490       0.47069060      -0.11519465      -0.02226917      -0.09543189       3.68220063       8.58181201       4.25493457       3.79739528       8.60408118       4.35036646       3.79739528       8.60408118       4.35036646
H       -0.84142780      -1.08537220       0.28878050      -0.02073892       0.03400266      -0.17783632       0.03164673       3.40356795       0.55922562       0.05238565       3.36956529       0.73706194       0.05238565       3.36956529       0.73706194
6
Properties=species:S:1:pos:R:3:REF_forces:R:3:x_forces:R:3:cas_forces:R:3:forces:R:3 state=1 data_path=dataset_delta/casscf_2nd_part/CAS_grad_x_points_with_old_xyz.json name=00031-0K_run85_step95 REF_energy=-5.0182606791640865 x_energy=-2569.70843643488 cas_energy=-2564.6901757557157 energy=-2564.6901757557157 pbc="F F F"
C       -2.97300400       0.40002850       0.23629930      -0.42686195      -0.00484663       0.14955027       2.06518149       3.30601484      -1.11292101       2.49204344       3.31086147      -1.26247128       2.49204344       3.31086147      -1.26247128
N       -0.77583020      -0.00789620       0.03486690       0.25934207       0.25763365       0.03097216       1.45189049       4.12401929       1.74076810       1.19254842       3.86638564       1.70979594       1.19254842       3.86638564       1.70979594
H       -3.36603250       1.49635260       0.32837440       0.12433164      -0.08727231      -0.09335954       1.00608981      -1.60371050       1.05718242       0.88175817      -1.51643819       1.15054196       0.88175817      -1.51643819       1.15054196
H       -3.30541280      -0.50592680      -0.16324740       0.11523560       0.07450482      -0.02750771      -0.64061272      -2.29991345      -0.31968744      -0.75584832      -2.37441827      -0.29217973      -0.75584832      -2.37441827      -0.29217973
H       -0.41378160       0.84788140      -0.61155790      -0.03936517      -0.12296894       0.02933437      -1.21395807      -2.36100811       0.36821491      -1.17459290      -2.23803917       0.33888054      -1.17459290      -2.23803917       0.33888054
H       -0.00601040       0.24700070       0.89996340      -0.03277898      -0.11717640      -0.08903880      -2.66868778      -1.16552789      -1.73360624      -2.63590880      -1.04835149      -1.64456744      -2.63590880      -1.04835149      -1.64456744
6
Properties=species:S:1:pos:R:3:REF_forces:R:3:x_forces:R:3:cas_forces:R:3:forces:R:3 state=1 data_path=dataset_delta/casscf_2nd_part/CAS_grad_x_points_with_old_xyz.json name=00571-fromIvanD REF_energy=-4.589979529934681 x_energy=-2567.171506486674 cas_energy=-2562.5815269567393 energy=-2562.5815269567393 pbc="F F F"
C       -2.12106280      -0.33337060       0.70133430       0.32624224       0.27165339      -0.39375050      -3.53290118      -2.54079925       4.86302736      -3.85914342      -2.81245264       5.25677786      -3.85914342      -2.81245264       5.25677786
N       -1.23500130       0.31792640       0.06998810      -0.24742329      -0.21045959       0.34399706       3.10934862       0.95782769      -3.08531729       3.35677191       1.16828728      -3.42931435       3.35677191       1.16828728      -3.42931435
H       -4.21698520       2.93070370      -2.37507630      -0.08394472       0.19327499       0.04781993      -0.21983510       0.48258067       0.10202801      -0.13589038       0.28930568       0.05420808      -0.13589038       0.28930568       0.05420808
H       -4.52408910       3.62840620      -2.20599040       0.08582873      -0.19540915      -0.04616225       0.22468193      -0.49012455      -0.10002096       0.13885320      -0.29471540      -0.05385871       0.13885320      -0.29471540      -0.05385871
H       -1.54569000       0.06854630      -0.85343840      -0.03790724      -0.08407548       0.11698827      -0.32896460       1.29357367      -3.14930305      -0.29105736       1.37764915      -3.26629132      -0.29105736       1.37764915      -3.26629132
H       -0.23225520       0.00500560       0.02741830      -0.04304770       0.02313816      -0.06949250       0.74741836       0.29506409       1.36898594       0.79046606       0.27192593       1.43847844       0.79046606       0.27192593       1.43847844
6
Properties=species:S:1:pos:R:3:REF_forces:R:3:x_forces:R:3:cas_forces:R:3:forces:R:3 state=1 data_path=dataset_delta/casscf_2nd_part/CAS_grad_x_points_with_old_xyz.json name=00396-5K_run35_step405 REF_energy=-4.641475194957366 x_energy=-2566.665375599154 cas_energy=-2562.0239004041964 energy=-2562.0239004041964 pbc="F F F"
C       -1.84681650      -0.57318800       0.82553040      -0.13327642       0.20218314      -0.35870957      -0.47814022      -2.70937015       3.18036275      -0.34486380      -2.91155329       3.53907232      -0.34486380      -2.91155329       3.53907232
N       -1.33621620       0.30376180       0.06316570       0.24277617       0.04009726       0.10248943      -2.25630512       0.18343321      -1.84286533      -2.49908129       0.14333595      -1.94535476      -2.49908129       0.14333595      -1.94535476
H       -5.02335880       4.24913270      -3.00678200       0.09506970       0.10346719      -0.14289242       0.21016055       0.24070233      -0.32779115       0.11509085       0.13723514      -0.18489873       0.11509085       0.13723514      -0.18489873
H       -4.65515750       4.65167920      -3.56232470      -0.09476641      -0.10394217       0.14319124      -0.20957418      -0.24304187       0.32990516      -0.11480777      -0.13909970       0.18671392      -0.11480777      -0.13909970       0.18671392
H       -2.29712600       0.24185820      -0.56917170      -0.16934458      -0.25046973       0.21205711       3.07636846       1.92937349      -0.27442142       3.24571304       2.17984322      -0.48647853       3.24571304       2.17984322      -0.48647853
H       -0.35552810       0.62686210       0.34368750       0.05965642       0.00891587       0.04364623      -0.34239461       0.59915455      -1.06540800      -0.40205103       0.59023868      -1.10905423      -0.40205103       0.59023868      -1.10905423
6
Properties=species:S:1:pos:R:3:REF_forces:R:3:x_forces:R:3:cas_forces:R:3:forces:R:3 state=1 data_path=dataset_delta/casscf_2nd_part/CAS_grad_x_points_with_old_xyz.json name=00451-5K_run08_step85 REF_energy=-5.144761431257848 x_energy=-2566.8896022389954 cas_energy=-2561.7448408077375 energy=-2561.7448408077375 pbc="F F F"
C       -3.06962260       0.46201490       0.30602690       0.42584452       0.10015304      -0.46455373       3.23302569       4.97134872      11.26806146       2.80718117       4.87119568      11.73261519       2.80718117       4.87119568      11.73261519
N       -0.56504970       0.10559900      -0.12534960       0.40015457       0.09908332      -0.33722235      -3.58368274      -1.00496280       2.53933964      -3.98383731      -1.10404612       2.87656199      -3.98383731      -1.10404612       2.87656199
H       -3.28487810       0.74911550       1.40621100      -0.22822443      -0.04722233       0.43270136       0.83159705       0.31559024      -1.86326045       1.05982148       0.36281257      -2.29596181       1.05982148       0.36281257      -2.29596181
H       -3.38090250      -0.03750770      -0.40006020      -0.14400293      -0.06879405       0.15031149      -3.02350899      -5.20781186      -9.56182950      -2.87950606      -5.13901781      -9.71214099      -2.87950606      -5.13901781      -9.71214099
H       -0.92464170      -0.88664750       0.08778120      -0.08601282       0.05079914       0.22689205       1.54963999      -1.04489368      -1.59404438       1.63565281      -1.09569282      -1.82093643       1.63565281      -1.09569282      -1.82093643
H       -1.18098690       0.03918560       0.88070770      -0.36599898      -0.13353102      -0.00835858       0.99468893       1.97121748      -0.78849652       1.36068791       2.10474850      -0.78013794       1.36068791       2.10474850      -0.78013794
6
Properties=species:S:1:pos:R:3:REF_forces:R:3:x_forces:R:3:cas_forces:R:3:forces:R:3 state=1 data_path=dataset_delta/casscf_2nd_part/CAS_grad_x_points_with_old_xyz.json name=00572-fromIvanD REF_energy=-5.030089260284512 x_energy=-2567.7421091370843 cas_energy=-2562.7120198768 energy=-2562.7120198768 pbc="F F F"
C       -3.42351250       0.42215700       0.28568790      -0.18363784      -0.01889084      -0.04264220       2.96691963      -1.97364146      -3.23101909       3.15055747      -1.95475062      -3.18837689       3.15055747      -1.95475062      -3.18837689
N       -0.45742930       0.10283620       0.05184220       0.12662969      -0.08684324      -0.15569996      -3.28652191       3.02129059       1.42882214      -3.41315160       3.10813383       1.58452210      -3.41315160       3.10813383       1.58452210
H       -3.20120220      -0.35379790       1.16443700       0.16470531       0.07369565      -0.08156941      -0.70908963       2.03656022      -0.53218461      -0.87379494       1.96286457      -0.45061520      -0.87379494       1.96286457      -0.45061520
H       -2.90777670       0.72517700      -1.01773820       0.14790607      -0.03896979       0.13996722      -1.71683730       0.11248407       3.91525984      -1.86474337       0.15145386       3.77529262      -1.86474337       0.15145386       3.77529262
H       -0.22355840      -0.79405910      -0.16246630      -0.14655321      -0.06640278       0.08298914       1.60353155      -3.99929913      -1.01687446       1.75008476      -3.93289635      -1.09986360       1.75008476      -3.93289635      -1.09986360
H        0.13222500       0.77326170      -0.39960210      -0.10940668       0.13941630       0.05521643       1.14164101       0.80461101      -0.56574260       1.25104769       0.66519471      -0.62095903       1.25104769       0.66519471      -0.62095903
6
Properties=species:S:1:pos:R:3:REF_forces:R:3:x_forces:R:3:cas_forces:R:3:forces:R:3 state=1 data_path=dataset_delta/casscf_2nd_part/CAS_grad_x_points_with_old_xyz.json name=00578-fromIvanD REF_energy=-4.600668069709627 x_energy=-2567.1410755989814 cas_energy=-2562.5404075292718 energy=-2562.5404075292718 pbc="F F F"
C       -1.80765970      -0.60795870       0.84508960       0.18464225       0.44206287      -0.50562814       0.41937760      -2.47363231       2.91447734       0.23473535      -2.91569518       3.42010548       0.23473535      -2.91569518       3.42010548
N       -1.36107240       0.29045210       0.06256360      -0.17422414      -0.24010565       0.24766547       1.98686197      -0.17284037       0.73754362       2.16108611       0.06726528       0.48987815       2.16108611       0.06726528       0.48987815
H       -5.13463070       4.49750480      -3.12772450       0.30414633       0.24861298      -0.34795366       0.79138602       0.52836117      -1.01235261       0.48723969       0.27974819      -0.66439895       0.48723969       0.27974819      -0.66439895
H       -4.68351000       4.75187900      -3.73736550      -0.30379494      -0.24914179       0.34836852      -0.79031033      -0.53063367       1.01450139      -0.48651539      -0.28149188       0.66613287      -0.48651539      -0.28149188       0.66613287
H       -2.20524500       0.35377410      -0.44001560       0.12750051      -0.00022000       0.28162414      -1.18598241       2.69207696      -2.97297195      -1.31348292       2.69229696      -3.25459609      -1.31348292       2.69229696      -3.25459609
H       -0.42162490       0.77793080       0.28545680      -0.13795018      -0.20157243      -0.19840696      -1.22101302      -0.04369580      -0.85552842      -1.08306284       0.15787663      -0.65712146      -1.08306284       0.15787663      -0.65712146
6
Properties=species:S:1:pos:R:3:REF_forces:R:3:x_forces:R:3:cas_forces:R:3:forces:R:3 state=1 data_path=dataset_delta/casscf_2nd_part/CAS_grad_x_points_with_old_xyz.json name=00392-5K_run35_step444 REF_energy=-4.492347687756592 x_energy=-2566.5410995868515 cas_energy=-2562.048751899095 energy=-2562.048751899095 pbc="F F F"
C       -1.61464620      -0.76247080       0.93120570       0.00767319       0.04225378       0.01556111      -0.05433106      -0.31039748       0.62918843      -0.06200425      -0.35265126       0.61362732      -0.06200425      -0.35265126       0.61362732
N       -1.43017490       0.22949690       0.10820280      -0.35632540       0.30243099      -0.26449207      -0.17066372       3.98187070      -2.22116344       0.18566168       3.67943971      -1.95667137       0.18566168       3.67943971      -1.95667137
H       -5.46317150       5.64872920      -3.89873070       0.09225019      -0.08845159      -0.07950367       0.23354972      -0.22598641      -0.19994998       0.14129953      -0.13753482      -0.12044631       0.14129953      -0.13753482      -0.12044631
H       -4.99299330       5.19370070      -4.31902810      -0.09220051       0.08833772       0.07957510      -0.23256751       0.22481147       0.20040470      -0.14036700       0.13647375       0.12082960      -0.14036700       0.13647375       0.12082960
H       -2.34824580       1.08333120      -0.39237450       0.43947803      -0.32355836       0.22482401      -1.27730234      -1.52477855       0.23462696      -1.71678037      -1.20122019       0.00980295      -1.71678037      -1.20122019       0.00980295
H       -0.94674660       1.19965340      -0.07154990      -0.09114906      -0.02180479       0.02508590       1.50104135      -2.14631198       1.35794371       1.59219041      -2.12450719       1.33285781       1.59219041      -2.12450719       1.33285781
6
Properties=species:S:1:pos:R:3:REF_forces:R:3:x_forces:R:3:cas_forces:R:3:forces:R:3 state=1 data_path=dataset_delta/casscf_2nd_part/CAS_grad_x_points_with_old_xyz.json name=00577-fromIvanD REF_energy=-4.589306012265297 x_energy=-2566.8895684529843 cas_energy=-2562.300262440719 energy=-2562.300262440719 pbc="F F F"
C       -2.14658780      -0.31274440       0.69288080       0.35508248       0.27163127      -0.36296867      -3.51653534      -2.28708627       4.33372917      -3.87161782      -2.55871754       4.69669784      -3.87161782      -2.55871754       4.69669784
N       -1.22768300       0.31406760       0.06744890      -0.31883273      -0.21319191       0.37225380       3.66936892       1.50971661      -0.41773668       3.98820165       1.72290852      -0.78999048       3.98820165       1.72290852      -0.78999048
H       -4.14979660       2.84875210      -2.32933040      -0.09515886       0.17838592       0.06749082      -0.42168522       0.76294715       0.26814428      -0.32652636       0.58456123       0.20065346      -0.32652636       0.58456123       0.20065346
H       -4.51147090       3.51091510      -2.08252620       0.10018214      -0.18091042      -0.06557713       0.43097791      -0.77177894      -0.26555379       0.33079577      -0.59086852      -0.19997666       0.33079577      -0.59086852      -0.19997666
H       -1.41282860       0.08962450      -0.83690330       0.01575500      -0.07980146       0.09197007      -1.73963018       0.69027188      -6.05617713      -1.75538518       0.77007334      -6.14814720      -1.75538518       0.77007334      -6.14814720
H       -0.24665580      -0.01579570      -0.02210560      -0.05688564       0.02428805      -0.10277237       1.57764630       0.09633102       2.13799066       1.63453194       0.07204297       2.24076303       1.63453194       0.07204297       2.24076303
6
Properties=species:S:1:pos:R:3:REF_forces:R:3:x_forces:R:3:cas_forces:R:3:forces:R:3 state=1 data_path=dataset_delta/casscf_2nd_part/CAS_grad_x_points_with_old_xyz.json name=00218-0K_run85_step30 REF_energy=-5.277320374958435 x_energy=-2569.8924896947897 cas_energy=-2564.6151693198312 energy=-2564.6151693198312 pbc="F F F"
C       -2.61031090       0.39043110       0.15758520       0.36259693      -0.23023688       0.12438756      -0.11158599      -1.11239928      -0.71008624      -0.47418292      -0.88216240      -0.83447380      -0.47418292      -0.88216240      -0.83447380
N       -1.04515450       0.09845670       0.09811870      -0.57802091       0.39648021      -0.15912068      -1.00608344      -1.57996898      -4.07355969      -0.42806253      -1.97644919      -3.91443901      -0.42806253      -1.97644919      -3.91443901
H       -2.96801160       0.76863830       1.06252900       0.05791863      -0.00789914      -0.10635746      -0.92075315       1.75173771       1.78713208      -0.97867178       1.75963685       1.89348954      -0.97867178       1.75963685       1.89348954
H       -3.17514100      -0.33680060      -0.38343150       0.10614661       0.08902503       0.00739791      -0.87561331      -0.78538512      -0.74462490      -0.98175992      -0.87441015      -0.75202281      -0.98175992      -0.87441015      -0.75202281
H       -0.81540970      -0.22542300      -0.90694150       0.00744267      -0.13819249       0.03713018       0.72938310       1.07400669       2.13603467       0.72194043       1.21219918       2.09890449       0.72194043       1.21219918       2.09890449
H       -0.64019800       0.58766120       0.83849130       0.02938039      -0.10311067       0.10584643       2.17011711       0.65807503       1.61438803       2.14073672       0.76118570       1.50854160       2.14073672       0.76118570       1.50854160
6
Properties=species:S:1:pos:R:3:REF_forces:R:3:x_forces:R:3:cas_forces:R:3:forces:R:3 state=1 data_path=dataset_delta/casscf_2nd_part/CAS_grad_x_points_with_old_xyz.json name=00369-5K_run35_step341 REF_energy=-4.572634071349057 x_energy=-2566.711276528352 cas_energy=-2562.138642457003 energy=-2562.138642457003 pbc="F F F"
C       -2.22720000      -0.24307490       0.66601320       0.38994724       0.19673058      -0.27155763      -2.93176056      -1.49350889       2.27661627      -3.32170780      -1.69023947       2.54817390      -3.32170780      -1.69023947       2.54817390
N       -1.20288020       0.29788800       0.06861700      -0.36494272      -0.15755794       0.27431983       4.06549419       0.41390553      -4.84744930       4.43043691       0.57146347      -5.12176913       4.43043691       0.57146347      -5.12176913
H       -3.95335790       2.61474420      -2.16444090      -0.12899151       0.12526937       0.12606066      -1.12606022       1.09371091       1.04589749      -0.99706871       0.96844154       0.91983683      -0.99706871       0.96844154       0.91983683
H       -4.44833160       3.09644750      -1.69748240       0.13272340      -0.12944627      -0.12268205       1.13880868      -1.10675052      -1.03991880       1.00608528      -0.97730425      -0.91723675       1.00608528      -0.97730425      -0.91723675
H       -1.08122190       0.16385550      -1.00728830       0.09786111      -0.06493569       0.14388191      -2.83630315       1.47487991      -1.03565632      -2.93416426       1.53981560      -1.17953823      -2.93416426       1.53981560      -1.17953823
H       -0.23555210      -0.06966790      -0.09707470      -0.12689957       0.03010630      -0.14966000       1.68951901      -0.38207059       3.60087339       1.81641858      -0.41217689       3.75053339       1.81641858      -0.41217689       3.75053339
6
Properties=species:S:1:pos:R:3:REF_forces:R:3:x_forces:R:3:cas_forces:R:3:forces:R:3 state=1 data_path=dataset_delta/casscf_2nd_part/CAS_grad_x_points_with_old_xyz.json name=00344-5K_run35_step349 REF_energy=-4.589206592690971 x_energy=-2566.6605430986333 cas_energy=-2562.0713365059423 energy=-2562.0713365059423 pbc="F F F"
C       -2.17827030      -0.28652770       0.68268410       0.39348339       0.26273008      -0.33087034      -3.36904374      -1.98607357       3.50002423      -3.76252713      -2.24880365       3.83089457      -3.76252713      -2.24880365       3.83089457
N       -1.21800560       0.30859140       0.06643030      -0.38348966      -0.22002005       0.35581060       3.39565219       1.43288690      -0.34054583       3.77914185       1.65290695      -0.69635643       3.77914185       1.65290695      -0.69635643
H       -4.06886010       2.75157680      -2.27019970      -0.09872243       0.14637597       0.08016092      -0.75166047       1.07405657       0.58145415      -0.65293804       0.92768060       0.50129323      -0.65293804       0.92768060       0.50129323
H       -4.49261430       3.35873410      -1.93014550       0.10114517      -0.14912554      -0.07798778       0.76021294      -1.08432324      -0.57792613       0.65906777      -0.93519770      -0.49993835       0.65906777      -0.93519770      -0.49993835
H       -1.26619030       0.11558900      -0.86505330       0.07448756      -0.07100836       0.10550025      -2.37299552       0.79012289      -6.15703493      -2.44748308       0.86113125      -6.26253518      -2.44748308       0.86113125      -6.26253518
H       -0.25527550      -0.03746210      -0.06955470      -0.08667427       0.02704365      -0.13263642       2.33806436      -0.23067379       2.99400574       2.42473863      -0.25771744       3.12664216       2.42473863      -0.25771744       3.12664216
6
Properties=species:S:1:pos:R:3:REF_forces:R:3:x_forces:R:3:cas_forces:R:3:forces:R:3 state=1 data_path=dataset_delta/casscf_2nd_part/CAS_grad_x_points_with_old_xyz.json name=00010-0K_run85_step139 REF_energy=-5.144440742950792 x_energy=-2568.6204897775438 cas_energy=-2563.476049034593 energy=-2563.476049034593 pbc="F F F"
C       -3.06349700       0.41155800       0.32295300      -0.44170558       0.01951041      -0.15949403       1.12538109       1.25965902      -2.79669232       1.56708667       1.24014861      -2.63719829       1.56708667       1.24014861      -2.63719829
N       -0.67031380       0.04453080      -0.02790120       0.17143255      -0.05892912       0.01574900       1.30136113       0.97675368       0.98781847       1.12992858       1.03568280       0.97206947       1.12992858       1.03568280       0.97206947
H       -3.07462840       1.09450730      -0.62370940       0.08223074      -0.01941768       0.09423011       0.28513433       0.17106121       1.80813702       0.20290359       0.19047889       1.71390691       0.20290359       0.19047889       1.71390691
H       -3.61126700      -0.47263390       0.01520560       0.03455907       0.03401187       0.08691915      -0.43983886      -1.44225446       1.02598825      -0.47439793      -1.47626633       0.93906910      -0.47439793      -1.47626633       0.93906910
H       -0.56891230       1.12148020       0.05334460       0.07992381      -0.13090332       0.07031802      -0.86100867      -1.39445744      -0.26138454      -0.94093248      -1.26355412      -0.33170256      -0.94093248      -1.26355412      -0.33170256
H       -0.26903000      -0.54632150       0.78053640       0.07346494       0.15564860      -0.10777286      -1.41112349       0.42915875      -0.76391749      -1.48458843       0.27351015      -0.65614463      -1.48458843       0.27351015      -0.65614463
6
Properties=species:S:1:pos:R:3:REF_forces:R:3:x_forces:R:3:cas_forces:R:3:forces:R:3 state=1 data_path=dataset_delta/casscf_2nd_part/CAS_grad_x_points_with_old_xyz.json name=00040-0K_run53_step214 REF_energy=-4.9337142651961585 x_energy=-2567.6710647096725 cas_energy=-2562.7373504444763 energy=-2562.7373504444763 pbc="F F F"
C       -3.49557030       0.36061660       0.27294840       0.07844290      -0.01575519       0.02970768       0.83504351       2.98453333       0.22289898       0.75660061       3.00028852       0.19319130       0.75660061       3.00028852       0.19319130
N       -0.39087820       0.11595170      -0.01783280       0.01569349      -0.01432059      -0.02008272      -1.10694844       3.19282515      -1.81031901      -1.12264193       3.20714574      -1.79023629      -1.12264193       3.20714574      -1.79023629
H       -3.75993790      -0.36467020       1.20318810      -0.00794348       0.06065963      -0.06382022       0.43038476       0.93619031      -2.16179085       0.43832824       0.87553068      -2.09797063       0.43832824       0.87553068      -2.09797063
H       -3.11117240       1.55701390      -0.49245270      -0.02926092      -0.05043446       0.03898943      -1.12828346      -3.93262970       1.92512459      -1.09902254      -3.88219524       1.88613516      -1.09902254      -3.88219524       1.88613516
H        0.00977590      -0.65262690       0.37311950      -0.01945471       0.02619775      -0.00833404       0.97870381      -4.37190327       2.58991853       0.99815852      -4.39810102       2.59825257       0.99815852      -4.39810102       2.59825257
H        0.52518740       0.36868930      -0.42491950      -0.03765546      -0.00638628       0.02363213      -0.00907836       1.19094505      -0.76573999       0.02857710       1.19733133      -0.78937212       0.02857710       1.19733133      -0.78937212
6
Properties=species:S:1:pos:R:3:REF_forces:R:3:x_forces:R:3:cas_forces:R:3:forces:R:3 state=1 data_path=dataset_delta/casscf_2nd_part/CAS_grad_x_points_with_old_xyz.json name=00310-5K_run08_step18 REF_energy=-5.171088877501916 x_energy=-2567.8014190414633 cas_energy=-2562.6303301639614 energy=-2562.6303301639614 pbc="F F F"
C       -2.56187010       0.37770750       0.25612810       1.32930034      -0.31535888      -0.34176755       3.46777586       0.92756107       3.20096958       2.13847552       1.24291995       3.54273713       2.13847552       1.24291995       3.54273713
N       -1.13091350       0.10187570       0.01060940      -1.02876479       0.12590580       0.00566777      -0.82736394       6.87395944       7.53853859       0.20140085       6.74805364       7.53287082       0.20140085       6.74805364       7.53287082
H       -3.21790900       0.75895600       0.99931800      -0.40448406       0.27313381       0.29684016      -0.45771096      -0.02345407       1.25831022      -0.05322690      -0.29658788       0.96147006      -0.05322690      -0.29658788       0.96147006
H       -2.71345590      -0.08535700      -0.62040240       0.12147642      -0.14419141       0.05419622      -2.42786189      -1.33520385      -5.90956053      -2.54933831      -1.19101244      -5.96375675      -2.54933831      -1.19101244      -5.96375675
H       -0.76736530      -0.53727920      -0.54609580       0.02997297       0.11522943      -0.04260364       2.70414890      -5.04842957      -3.02096483       2.67417593      -5.16365900      -2.97836119       2.67417593      -5.16365900      -2.97836119
H       -0.25785150       0.78387970       0.84636070      -0.01408059      -0.07821735       0.05068715      -2.42556769      -1.41793162      -3.04427292      -2.41148710      -1.33971427      -3.09496007      -2.41148710      -1.33971427      -3.09496007
6
Properties=species:S:1:pos:R:3:REF_forces:R:3:x_forces:R:3:cas_forces:R:3:forces:R:3 state=1 data_path=dataset_delta/casscf_2nd_part/CAS_grad_x_points_with_old_xyz.json name=00387-5K_run28_step30 REF_energy=-5.2487618244513214 x_energy=-2568.773108960355 cas_energy=-2563.5243471359036 energy=-2563.5243471359036 pbc="F F F"
C       -2.65158360       0.34747150       0.13510450       0.51577582      -0.09760521       0.03579972      -0.52305282       1.19600030       2.77182302      -1.03882864       1.29360551       2.73602330      -1.03882864       1.29360551       2.73602330
N       -1.07335580       0.11050910       0.15740500      -0.84591532       0.59231312      -0.26710189       3.49397380      -4.64908102      -5.43662015       4.33988912      -5.24139414      -5.16951826       4.33988912      -5.24139414      -5.16951826
H       -2.52473740       0.87342240       1.31303480       0.07422495      -0.11893395      -0.10617248      -2.37825662      -1.08732100      -3.14456698      -2.45248157      -0.96838705      -3.03839450      -2.45248157      -0.96838705      -3.03839450
H       -3.15473740      -0.16184740      -0.80699450       0.11040409      -0.03248434       0.13779180       0.41424717       1.42482541       1.78128966       0.30384308       1.45730975       1.64349786       0.30384308       1.45730975       1.64349786
H       -0.66038430      -0.27595780      -0.89181610       0.06839476      -0.08221222       0.11228031      -1.31911908       1.06635869       3.38885347      -1.38751384       1.14857091       3.27657316      -1.38751384       1.14857091       3.27657316
H       -0.34805860       0.72462840       0.46635240       0.07754857      -0.26329921       0.08762598       0.31264041       2.04699581       0.63944441       0.23509184       2.31029502       0.55181843       0.23509184       2.31029502       0.55181843
6