6
Properties=species:S:1:pos:R:3:REF_forces:R:3:x_forces:R:3:cas_forces:R:3:forces:R:3 state=2 data_path=dataset_delta/casscf_2nd_part/CAS_grad_x_points_with_old_xyz.json name=00480-fromIvanD REF_energy=-5.087682577614942 x_energy=-2567.454940297 cas_energy=-2562.367257719385 energy=-2562.367257719385 pbc="F F F"
C       -3.31717130       0.45134460       0.23858170       0.11284624      -0.05073806      -0.02161668      -2.52041421      -3.11622113       0.74468512      -2.63326045      -3.06548307       0.76630180      -2.63326045      -3.06548307       0.76630180
N       -0.38536250       0.11917350      -0.00816530      -0.05814100      -0.01179198      -0.01878886      -1.21076584       1.20363031      -2.19953614      -1.15262484       1.21542229      -2.18074728      -1.15262484       1.21542229      -2.18074728
H       -3.35501520       0.69946460       1.28550690      -0.11161542      -0.10318463      -0.12671306       1.79341936       2.23898648       1.20800663       1.90503478       2.34217111       1.33471969       1.90503478       2.34217111       1.33471969
H       -4.03285840      -0.38063490      -0.14333940       0.04984479       0.14022920       0.15574158       1.49078157       0.90258871      -2.02636168       1.44093678       0.76235951      -2.18210326       1.44093678       0.76235951      -2.18210326
H       -0.56318910      -0.70981110      -0.63057010      -0.00342518      -0.02986496      -0.09656891       0.31016665      -0.06973768       1.12623557       0.31359183      -0.03987272       1.22280448       0.31359183      -0.03987272       1.22280448
H       -0.36661950       0.00019900       0.99049450       0.01164885       0.05512690       0.10789641       0.13797075      -1.15947022       1.14692097       0.12632190      -1.21459712       1.03902456       0.12632190      -1.21459712       1.03902456
6
Properties=species:S:1:pos:R:3:REF_forces:R:3:x_forces:R:3:cas_forces:R:3:forces:R:3 state=2 data_path=dataset_delta/casscf_2nd_part/CAS_grad_x_points_with_old_xyz.json name=00213-5K_run91_step256 REF_energy=-5.473276367423296 x_energy=-2564.7497916825805 cas_energy=-2559.276515315157 energy=-2559.276515315157 pbc="F F F"
C       -4.67407890       0.49685280       0.10994590      -0.04302884       0.28944385       0.02797730       1.36573154       0.17794714       0.62996023       1.40876038      -0.11149671       0.60198293       1.40876038      -0.11149671       0.60198293
N        0.61979170      -0.38745880       0.06869850       0.00844167       0.02695950       0.12287016       8.49777365       0.41316489       1.73392984       8.48933198       0.38620539       1.61105968       8.48933198       0.38620539       1.61105968
H       -3.81603700       1.08435070       0.64218110      -0.10650803      -0.19671591      -0.08897067      -1.98962848      -0.72138989      -1.05507273      -1.88312045      -0.52467398      -0.96610206      -1.88312045      -0.52467398      -0.96610206
H       -5.66704830       0.38751530      -0.38654250       0.16486155      -0.09429158       0.06119112       0.64072286       0.55364057       0.43322207       0.47586131       0.64793215       0.37203095       0.47586131       0.64793215       0.37203095
H        1.90913130      -0.44262430      -0.32386020      -0.01489618       0.02188364       0.12898093      -3.99236296      -0.46972202      -2.31971732      -3.97746678      -0.49160566      -2.44869825      -3.97746678      -0.49160566      -2.44869825
H        1.30541760      -0.21289600       0.98852310      -0.01038384      -0.04708112      -0.25195433      -4.52375027       0.04655769       0.57777243      -4.51336643       0.09363881       0.82972676      -4.51336643       0.09363881       0.82972676
6
Properties=species:S:1:pos:R:3:REF_forces:R:3:x_forces:R:3:cas_forces:R:3:forces:R:3 state=2 data_path=dataset_delta/casscf_2nd_part/CAS_grad_x_points_with_old_xyz.json name=00176-5K_run97_step330 REF_energy=-4.419502925303732 x_energy=-2567.2894358031926 cas_energy=-2562.869932877889 energy=-2562.869932877889 pbc="F F F"
C       -4.53220150       0.64410440       0.56258470       0.16543678       0.47172885       0.03366144      -0.63863683       1.27139600       0.39088551      -0.80407361       0.79966715       0.35722407      -0.80407361       0.79966715       0.35722407
N        0.74882570      -0.15052990      -0.27913080      -0.14646374       0.00052127       0.01572233      -1.85459681       0.66331170       0.23025861      -1.70813307       0.66279043       0.21453628      -1.70813307       0.66279043       0.21453628
H       -5.14357430      -0.24237750       0.58502690      -0.23112919      -0.42989608      -0.00682571      -0.08945295      -1.39073037      -0.20587478       0.14167624      -0.96083429      -0.19904907       0.14167624      -0.96083429      -0.19904907
H       -4.93107340       1.65531820       0.84084630       0.06949481      -0.04153657      -0.02638750       0.71451497       0.11903226      -0.17848322       0.64502016       0.16056883      -0.15209572       0.64502016       0.16056883      -0.15209572
H        0.41181680       0.84002630      -0.09018750       0.06752118      -0.01537802      -0.01097481       0.95904526      -1.84054912      -0.39427212       0.89152408      -1.82517110      -0.38329731       0.89152408      -1.82517110      -0.38329731
H        0.29894180      -1.08282520      -0.43530000       0.07330964       0.01461711      -0.00508592       0.90729584       1.17759609       0.15759583       0.83398620       1.16297898       0.16268175       0.83398620       1.16297898       0.16268175
6
Properties=species:S:1:pos:R:3:REF_forces:R:3:x_forces:R:3:cas_forces:R:3:forces:R:3 state=2 data_path=dataset_delta/casscf_2nd_part/CAS_grad_x_points_with_old_xyz.json name=00346-5K_run40_step303 REF_energy=-5.510645614731857 x_energy=-2567.6018503264213 cas_energy=-2562.0912047116894 energy=-2562.0912047116894 pbc="F F F"
C       -3.44836760       0.03867370       0.36882670      -0.24866318       1.02887492      -0.56383479      -0.33917152       1.22397802      -0.45193950      -0.09050834       0.19510310       0.11189529      -0.09050834       0.19510310       0.11189529
N       -0.36055040       0.29759520      -0.08980400      -0.83571394       0.48579039      -0.68997748      -1.05052933       0.46328989       1.11532741      -0.21481539      -0.02250050       1.80530489      -0.21481539      -0.02250050       1.80530489
H       -2.85491630      -0.69938000      -0.33588310       0.14479980      -0.68500221       0.06070028      -1.76288596       1.37345904       1.50900056      -1.90768576       2.05846125       1.44830028      -1.90768576       2.05846125       1.44830028
H       -4.31052710       0.93006300       0.84152280      -0.06206693      -0.31475777       0.35458320       2.62717382      -2.67646892      -1.34475339       2.68924075      -2.36171115      -1.69933659       2.68924075      -2.36171115      -1.69933659
H       -0.33474110      -0.77974800      -0.17077070       0.46842072      -0.06935392       0.52054017       0.32159952       1.56761961       0.70823387      -0.14682120       1.63697353       0.18769370      -0.14682120       1.63697353       0.18769370
H       -0.30757130       0.99652300       0.77087350       0.53491394      -0.44582987       0.31663383       0.20550387      -1.95215609      -1.53722372      -0.32941007      -1.50632622      -1.85385755      -0.32941007      -1.50632622      -1.85385755
6
Properties=species:S:1:pos:R:3:REF_forces:R:3:x_forces:R:3:cas_forces:R:3:forces:R:3 state=2 data_path=dataset_delta/casscf_2nd_part/CAS_grad_x_points_with_old_xyz.json name=00553-fromIvanD REF_energy=-5.471202320505654 x_energy=-2565.9325291006817 cas_energy=-2560.461326780176 energy=-2560.461326780176 pbc="F F F"
C       -3.16986520       0.55385280       0.07888550       0.44953915      -0.08669885      -0.05919345       1.42882996       0.22666827      -1.10448054       0.97929081       0.31336712      -1.04528709       0.97929081       0.31336712      -1.04528709
N       -0.70259370      -0.04993610       0.27912870      -0.37117403      -0.03962966       0.61778349       3.99389616       2.88612224      -4.07176197       4.36507019       2.92575190      -4.68954546       4.36507019       2.92575190      -4.68954546
H       -2.69797630      -0.22933310       0.66536960      -0.10681729       0.04039636      -0.00663021      -0.48579712      -0.80286358       1.14754143      -0.37897983      -0.84325994       1.15417164      -0.37897983      -0.84325994       1.15417164
H       -2.57643640       1.33740060      -0.45177710      -0.14334839       0.05048511      -0.02557443      -0.80405560       0.62454152       0.04537864      -0.66070721       0.57405641       0.07095307      -0.66070721       0.57405641       0.07095307
H       -0.10405430      -0.74658390      -0.16446980       0.11519552       0.15886221      -0.33063699      -0.93325555      -3.38428889       1.22444169      -1.04845107      -3.54315110       1.55507868      -1.04845107      -3.54315110       1.55507868
H       -0.04318030       0.68158440      -0.46302070       0.05613443      -0.12299392      -0.19545988      -3.20008846       0.45024169       2.75916928      -3.25622289       0.57323561       2.95462916      -3.25622289       0.57323561       2.95462916
6
Properties=species:S:1:pos:R:3:REF_forces:R:3:x_forces:R:3:cas_forces:R:3:forces:R:3 state=2 data_path=dataset_delta/casscf_2nd_part/CAS_grad_x_points_with_old_xyz.json name=00330-5K_run15_step175 REF_energy=-3.574207625773397 x_energy=-2564.8662209395798 cas_energy=-2561.2920133138064 energy=-2561.2920133138064 pbc="F F F"
C       -2.47587150       0.12070830       0.10772320       1.25048038       0.10659102       0.31006441       6.01356875       1.40465465      -7.87467210       4.76308837       1.29806363      -8.18473651       4.76308837       1.29806363      -8.18473651
N       -1.09729820       0.29288780      -0.19284100      -1.99360346      -1.28602246      -0.38322333      -6.08096632      -1.98602390       3.90945511      -4.08736286      -0.70000144       4.29267844      -4.08736286      -0.70000144       4.29267844
H       -3.26922660       0.60868760       5.18183920       0.00024733      -0.00010616      -0.00148335       0.00141971      -0.00087443      -0.00580087       0.00117238      -0.00076827      -0.00431752       0.00117238      -0.00076827      -0.00431752
H       -2.58664870       0.83955550      -0.68194210       0.62727634       0.44121620      -0.21511936      -2.67738629       2.48277531      -1.67542273      -3.30466263       2.04155911      -1.46030337      -3.30466263       2.04155911      -1.46030337
H       -0.14584570       0.12782270      -0.12860690       0.17183366       0.84160299       0.21953703       4.10713084       0.25316390      -1.61974030       3.93529718      -0.58843909      -1.83927733       3.93529718      -0.58843909      -1.83927733
H       -2.48233020      -0.26348940       0.99725110      -0.06056673      -0.09727338       0.06959161      -1.36809916      -2.14768732       7.26554789      -1.30753243      -2.05041394       7.19595628      -1.30753243      -2.05041394       7.19595628
6
Properties=species:S:1:pos:R:3:REF_forces:R:3:x_forces:R:3:cas_forces:R:3:forces:R:3 state=2 data_path=dataset_delta/casscf_2nd_part/CAS_grad_x_points_with_old_xyz.json name=00513-fromIvanD REF_energy=-5.181633438242443 x_energy=-2567.1910303587256 cas_energy=-2562.009396920483 energy=-2562.009396920483 pbc="F F F"
C       -3.14972730       0.28009390       0.26552700      -0.08938832      -0.27339682      -0.02474330       2.88739098       4.13456698       2.44440535       2.97677930       4.40796380       2.46914865       2.97677930       4.40796380       2.46914865
N       -0.61551970       0.05627210       0.08456940       0.14889040      -0.04479484       0.00219342      -1.79398783      -2.16772074      -0.06744210      -1.94287823      -2.12292590      -0.06963552      -1.94287823      -2.12292590      -0.06963552
H       -3.23688510       0.52245510       1.38377660       0.06434160       0.22376969      -0.26415325      -1.05812735      -2.94969143       0.30223850      -1.12246895      -3.17346112       0.56639175      -1.12246895      -3.17346112       0.56639175
H       -2.72493570       1.23157080      -0.20070680       0.02782249       0.05246080       0.28639194      -0.52566979      -1.22128983      -2.84364216      -0.55349228      -1.27375063      -3.13003410      -0.55349228      -1.27375063      -3.13003410
H       -0.71582740      -0.59114090      -0.77802730      -0.05491472      -0.02808974      -0.00703197       0.22013129       0.47968731       0.92953778       0.27504601       0.50777705       0.93656975       0.27504601       0.50777705       0.93656975
H       -0.70141890       0.94867750      -0.37345010      -0.09676954       0.06983670       0.00731947       0.27024461       1.72423349      -0.76512107       0.36701415       1.65439679      -0.77244054       0.36701415       1.65439679      -0.77244054
6
Properties=species:S:1:pos:R:3:REF_forces:R:3:x_forces:R:3:cas_forces:R:3:forces:R:3 state=2 data_path=dataset_delta/casscf_2nd_part/CAS_grad_x_points_with_old_xyz.json name=00020-5K_run63_step111 REF_energy=-3.3413295390864732 x_energy=-2565.7383858867524 cas_energy=-2562.397056347666 energy=-2562.397056347666 pbc="F F F"
C       -2.70927040       0.45258990       0.22003570       0.64198857      -0.59759285      -0.00135202       0.39149183      -0.29912823      -0.17245264      -0.25049674       0.29846462      -0.17110062      -0.25049674       0.29846462      -0.17110062
N       -1.29266350      -0.12208330       0.28595740      -0.48227184       0.28712521      -0.08617608      -2.37515016       1.32780246       0.68435274      -1.89287832       1.04067725       0.77052882      -1.89287832       1.04067725       0.77052882
H       -2.62525130       1.69727020       0.54224530      -0.00100725       0.19001779       0.00489576      -0.30874766      -2.39898146      -0.34340968      -0.30774041      -2.58899925      -0.34830544      -0.30774041      -2.58899925      -0.34830544
H       -3.54784300      -0.25205490      -0.07213770      -0.04728637       0.13061330       0.03272636       0.32012648       1.19378792       0.17619740       0.36741285       1.06317462       0.14347104       0.36741285       1.06317462       0.14347104
H        3.87508210       1.25734940      -3.60494100      -0.00013028      -0.00002725       0.00010634      -0.00111504      -0.00016424       0.00086590      -0.00098476      -0.00013699       0.00075956      -0.00098476      -0.00013699       0.00075956
H       -0.59538620       0.60326450       0.43049960      -0.10977590      -0.00935766       0.05061983       1.97491149       0.17746208      -0.34473354       2.08468739       0.18681974      -0.39535337       2.08468739       0.18681974      -0.39535337
6
Properties=species:S:1:pos:R:3:REF_forces:R:3:x_forces:R:3:cas_forces:R:3:forces:R:3 state=2 data_path=dataset_delta/casscf_2nd_part/CAS_grad_x_points_with_old_xyz.json name=00027-5K_run66_step0 REF_energy=-5.492573850784993 x_energy=-2566.2980845437014 cas_energy=-2560.8055106929164 energy=-2560.8055106929164 pbc="F F F"
C       -2.42575810       0.23217200       0.20928730       0.32576039       0.42954972      -0.22418236     -18.70545259       4.74966273       3.65051985     -19.03121298       4.32011301       3.87470221     -19.03121298       4.32011301       3.87470221
N       -1.22417000       0.21598780       0.06533540      -0.55191759      -0.19609940       0.28220123      20.69052698      -1.85492987      -0.80351176      21.24244457      -1.65883047      -1.08571299      21.24244457      -1.65883047      -1.08571299
H       -2.78716630       1.29420580       0.79314040       0.19757644      -0.55189325      -0.13320471      -0.57118208      -1.51959577      -0.13970728      -0.76875852      -0.96770252      -0.00650257      -0.76875852      -0.96770252      -0.00650257
H       -3.02511930      -0.00773140      -0.62952250       0.01070660       0.14558613       0.08973004      -1.43587036      -1.23453970      -0.86343883      -1.44657696      -1.38012583      -0.95316887      -1.44657696      -1.38012583      -0.95316887
H       -0.91674780      -0.40657680      -0.70451670       0.01165564      -0.03944113       0.08612624       1.11835987       0.14656528       0.19176677       1.10670423       0.18600641       0.10564053       1.10670423       0.18600641       0.10564053
H       -0.55282970       0.18769810       1.01730710       0.12590677       0.20819414      -0.11247608      -0.97669357      -0.29126647      -2.04743439      -1.10260034      -0.49946061      -1.93495831      -1.10260034      -0.49946061      -1.93495831
6
Properties=species:S:1:pos:R:3:REF_forces:R:3:x_forces:R:3:cas_forces:R:3:forces:R:3 state=2 data_path=dataset_delta/casscf_2nd_part/CAS_grad_x_points_with_old_xyz.json name=00063-5K_run61_step151 REF_energy=-4.885042265428183 x_energy=-2564.8313588352007 cas_energy=-2559.9463165697725 energy=-2559.9463165697725 pbc="F F F"
C       -2.52446260       0.26723130       0.21268290      -3.19629036       3.73603898      -0.16103830     -17.22315504       8.48041346      -1.99352946     -14.02686468       4.74437448      -1.83249116     -14.02686468       4.74437448      -1.83249116
N       -1.44429770      -0.10114020       0.06047860       2.28914088      -1.18181766      -0.99110048      20.60114890      -7.87067732      -2.23381368      18.31200802      -6.68885966      -1.24271320      18.31200802      -6.68885966      -1.24271320
H       -3.26994060       0.60995640       0.88893080       0.15436781      -1.16248509       0.60677813      -0.65997122      -0.67822827       3.21821011      -0.81433903       0.48425682       2.61143198      -0.81433903       0.48425682       2.61143198
H       -3.16321950       0.96029000      -0.64781690       0.86746143      -1.20272590       0.23124526       2.00717225      -2.02978619       0.79162976       1.13971082      -0.82706029       0.56038450       1.13971082      -0.82706029       0.56038450
H       -0.29265720      -0.66146410       0.11377580      -0.11559643      -0.19634326       0.31394924      -4.72555900       2.09162523       0.21732452      -4.60996257       2.28796849      -0.09662472      -4.60996257       2.28796849      -0.09662472
H        3.94481570       4.43452910       0.19735520      -0.00030526      -0.00010224      -0.00002575      -0.00085782      -0.00078208      -0.00001316      -0.00055256      -0.00067984       0.00001259      -0.00055256      -0.00067984       0.00001259
6
Properties=species:S:1:pos:R:3:REF_forces:R:3:x_forces:R:3:cas_forces:R:3:forces:R:3 state=2 data_path=dataset_delta/casscf_2nd_part/CAS_grad_x_points_with_old_xyz.json name=00211-0K_run69_step40 REF_energy=-5.191120417389811 x_energy=-2568.2122982115297 cas_energy=-2563.02117779414 energy=-2563.02117779414 pbc="F F F"
C       -2.71371270       0.37830080       0.19495210       0.22155264      -0.09037180       0.24786628       0.75847256       0.08152038      -2.60939906       0.53691992       0.17189218      -2.85726534       0.53691992       0.17189218      -2.85726534
N       -0.97940970       0.06610850       0.10583180      -0.48041493       0.18315261      -0.31105833       3.37285576      -0.76250996      -1.37389031       3.85327069      -0.94566257      -1.06283198       3.85327069      -0.94566257      -1.06283198
H       -3.00840130       0.91591220       1.01066760       0.02545682      -0.01369134      -0.11433206      -0.35468175       1.63724658       3.09290693      -0.38013857       1.65093792       3.20723899      -0.38013857       1.65093792       3.20723899
H       -3.16091410      -0.13422460      -0.65095900       0.11396901       0.02767302      -0.00413411       0.31031227      -1.03439581      -0.78101460       0.19634326      -1.06206883      -0.77688049       0.19634326      -1.06206883      -0.77688049
H       -0.57893740      -0.20955790      -0.90845460       0.08348932      -0.05160674       0.13426491      -2.05888377       0.73807121       1.95502313      -2.14237309       0.78967795       1.82075822      -2.14237309       0.78967795       1.82075822
H       -0.45823780       0.90220330       0.60435370       0.03597924      -0.05517755       0.04747925      -2.02804298      -0.65995420      -0.28354015      -2.06402222      -0.60477665      -0.33101940      -2.06402222      -0.60477665      -0.33101940
6
Properties=species:S:1:pos:R:3:REF_forces:R:3:x_forces:R:3:cas_forces:R:3:forces:R:3 state=2 data_path=dataset_delta/casscf_2nd_part/CAS_grad_x_points_with_old_xyz.json name=00026-5K_run98_step267 REF_energy=-4.29664351416568 x_energy=-2565.5507633837883 cas_energy=-2561.2541198696226 energy=-2561.2541198696226 pbc="F F F"
C       -5.06591880       0.61383660       0.23000390       0.12892043      -0.10248024       0.10773028       4.92783593      -2.91917264       2.60373189       4.79891550      -2.81669240       2.49600161       4.79891550      -2.81669240       2.49600161
N        1.03760050       0.01084950      -0.03922710       0.10145678      -0.29774597       0.06556192       0.23015175      -0.35740861       1.44618126       0.12869497      -0.05966264       1.38061934       0.12869497      -0.05966264       1.38061934
H       -3.73344610       0.07988760       0.54772220      -0.16492805       0.06578427      -0.04756455      -1.88674475       2.02663864      -2.33815105      -1.72181670       1.96085437      -2.29058650      -1.72181670       1.96085437      -2.29058650
H       -5.74548110       0.26322990       1.00088560       0.02855097       0.02541403      -0.04939485      -3.01959238       0.90532395      -0.26095701      -3.04814335       0.87990992      -0.21156216      -3.04814335       0.87990992      -0.21156216
H        1.43035720      -0.32294400       0.97819220      -0.07455412       0.13105587      -0.11849610      -0.80729982       0.02275550      -3.12016628      -0.73274570      -0.10830037      -3.00167018      -0.73274570      -0.10830037      -3.00167018
H        1.01801970      -0.73259670      -0.81669670      -0.03066589       0.16672819       0.05345628       0.54442939       0.31061932       1.68065416       0.57509528       0.14389113       1.62719788       0.57509528       0.14389113       1.62719788
6
Properties=species:S:1:pos:R:3:REF_forces:R:3:x_forces:R:3:cas_forces:R:3:forces:R:3 state=2 data_path=dataset_delta/casscf_2nd_part/CAS_grad_x_points_with_old_xyz.json name=00069-5K_run90_step440 REF_energy=-2.847639325713317 x_energy=-2562.8055197386097 cas_energy=-2559.9578804128964 energy=-2559.9578804128964 pbc="F F F"
C       -2.44258680      -0.35402080      -0.17245670       0.16190088       0.00843192       0.08048917       2.48041987       4.11307801      -1.95544705       2.31851899       4.10464609      -2.03593622       2.31851899       4.10464609      -2.03593622
N       -1.08236900       0.35687630       0.00564400       0.06281993      -0.02098558      -0.03462088      -2.93668201      -2.53703022      -1.97753375      -2.99950194      -2.51604464      -1.94291287      -2.99950194      -2.51604464      -1.94291287
H       -4.28453040      10.47799920       6.73232130      -0.00001952      -0.00000500      -0.00000466       0.00001167      -0.00004566      -0.00002761       0.00003119      -0.00004066      -0.00002295       0.00003119      -0.00004066      -0.00002295
H       -2.42009080      -0.68431480       0.82017520      -0.06427546      -0.00951514      -0.03111091      -0.81107862      -2.36312655       2.86017261      -0.74680316      -2.35361141       2.89128352      -0.74680316      -2.35361141       2.89128352
H       -0.42081980      -0.35521820       0.35466520      -0.08214386       0.02656273      -0.03870757       1.25551080       0.71943426       1.20452006       1.33765466       0.69287153       1.24322763       1.33765466       0.69287153       1.24322763
H        1.23387240       0.51039550      -0.90711290      -0.07817079      -0.00731114       0.02370828       0.01192946       0.06486796      -0.13193082       0.09010025       0.07217910      -0.15563910       0.09010025       0.07217910      -0.15563910
6
Properties=species:S:1:pos:R:3:REF_forces:R:3:x_forces:R:3:cas_forces:R:3:forces:R:3 state=2 data_path=dataset_delta/casscf_2nd_part/CAS_grad_x_points_with_old_xyz.json name=00090-5K_run72_step132 REF_energy=-1.352577352300159 x_energy=-2561.132247434803 cas_energy=-2559.779670082503 energy=-2559.779670082503 pbc="F F F"
C       -1.99498590       0.54614820       0.48686200       0.12835543      -0.50718170      -0.00396730      -8.88273431       6.71898845       4.49683519      -9.01108974       7.22617015       4.50080249      -9.01108974       7.22617015       4.50080249
N       -1.05702980       0.01287170       0.02290500       0.23025253       0.24617132      -0.24408500       7.82577609      -1.97132151      -4.45088314       7.59552356      -2.21749283      -4.20679814       7.59552356      -2.21749283      -4.20679814
H       -8.70069370      -0.93371460       1.13509730       0.00039608       0.00013763      -0.00011090       0.00131533       0.00021201      -0.00015349       0.00091925       0.00007438      -0.00004259       0.00091925       0.00007438      -0.00004259
H       -4.28531160       1.04245820      -3.24770220       0.00271142      -0.00057236       0.00387674       0.00761175      -0.00208270       0.01012516       0.00490033      -0.00151034       0.00624842       0.00490033      -0.00151034       0.00624842
H       -1.56919030      -0.79735760       0.40876920      -0.42664133       0.16780385       0.27560820       0.82832568      -3.49276564      -0.25375335       1.25496701      -3.66056949      -0.52936155       1.25496701      -3.66056949      -0.52936155
H       -0.44132990       0.59543270      -0.73739360       0.06463062       0.09350884      -0.03107444       0.21941020      -1.25316303       0.19807693       0.15477958      -1.34667187       0.22915137       0.15477958      -1.34667187       0.22915137
6
Properties=species:S:1:pos:R:3:REF_forces:R:3:x_forces:R:3:cas_forces:R:3:forces:R:3 state=2 data_path=dataset_delta/casscf_2nd_part/CAS_grad_x_points_with_old_xyz.json name=00569-fromIvanD REF_energy=-5.118873666179297 x_energy=-2568.568329326142 cas_energy=-2563.4494556599625 energy=-2563.4494556599625 pbc="F F F"
C       -2.94504050       0.14207340      -0.12295500      -0.21284290       0.11276271      -0.04607354      -0.63934712      -0.52321100       2.11704686      -0.42650422      -0.63597371       2.16312040      -0.42650422      -0.63597371       2.16312040
N       -0.69579590       0.15922000       0.05664610      -0.08574965      -0.01471956       0.07958385       0.56954686       5.12842452       1.83630644       0.65529651       5.14314408       1.75672259       0.65529651       5.14314408       1.75672259
H       -3.33458400       0.04165880       0.97019850       0.07201377      -0.02693486      -0.06562036       0.83476630       0.21090385      -1.61676126       0.76275253       0.23783871      -1.55114090       0.76275253       0.23783871      -1.55114090
H       -3.03400280       0.16614210      -1.22678190       0.05168414      -0.05441378       0.07515123       0.54486195       0.10867087       0.01973923       0.49317781       0.16308465      -0.05541200       0.49317781       0.16308465      -0.05541200
H       -0.54343690      -0.76713910      -0.18915080       0.09525377       0.04154320       0.02519841      -0.21812166      -3.41426708      -0.25272768      -0.31337543      -3.45581028      -0.27792609      -0.31337543      -3.45581028      -0.27792609
H       -0.55374610       0.60541270       1.07397140       0.07964894      -0.05830415      -0.06816570      -1.09169825      -1.51058760      -2.10352970      -1.17134719      -1.45228345      -2.03536400      -1.17134719      -1.45228345      -2.03536400
6
Properties=species:S:1:pos:R:3:REF_forces:R:3:x_forces:R:3:cas_forces:R:3:forces:R:3 state=2 data_path=dataset_delta/casscf_2nd_part/CAS_grad_x_points_with_old_xyz.json name=00181-0K_run81_step50 REF_energy=-5.202444677566291 x_energy=-2568.0786436492085 cas_energy=-2562.876198971642 energy=-2562.876198971642 pbc="F F F"
C       -2.81501290       0.38576560       0.20430290      -0.08915795       0.19344113      -0.07579266      -0.69615930       0.52324087       2.16104651      -0.60700135       0.32979974       2.23683917      -0.60700135       0.32979974       2.23683917
N       -0.88900630       0.12449340       0.03723580      -0.24204381      -0.02939349       0.15978707      -0.08325320       1.80026564      -0.68294712       0.15879061       1.82965913      -0.84273419       0.15879061       1.82965913      -0.84273419
H       -3.09619340       0.76863020       1.27068730      -0.00901903      -0.09431958      -0.07696297       0.88964213      -0.53387732      -1.50852079       0.89866116      -0.43955774      -1.43155782       0.89866116      -0.43955774      -1.43155782
H       -3.12309300      -0.15201980      -0.69787700       0.01261576      -0.03242139       0.12153762       0.25675321      -0.23498445      -0.46038711       0.24413745      -0.20256306      -0.58192473       0.24413745      -0.20256306      -0.58192473
H       -0.69622570      -0.64666730      -0.51745720       0.15965884      -0.01798989      -0.07197493      -0.63040446      -2.68064023      -1.91368925      -0.79006330      -2.66265034      -1.84171432      -0.79006330      -2.66265034      -1.84171432
H       -0.26465140       0.41022620       0.74263410       0.16802425      -0.01947420      -0.05674931       0.26349968       1.12583808       2.40434257       0.09547543       1.14531228       2.46109188       0.09547543       1.14531228       2.46109188
6