6
Properties=species:S:1:pos:R:3:REF_forces:R:3:x_forces:R:3:cas_forces:R:3:forces:R:3 state=2 data_path=dataset_delta/casscf_2nd_part/CAS_grad_x_points_with_old_xyz.json name=00576-fromIvanD REF_energy=-4.5708669619548346 x_energy=-2565.894830013088 cas_energy=-2561.323963051133 energy=-2561.323963051133 pbc="F F F"
C       -1.85782570      -0.56321840       0.82000400      -0.13507791       0.09385172      -0.25978529      -4.22457915      -8.13637155       7.91247025      -4.08950124      -8.23022327       8.17225554      -4.08950124      -8.23022327       8.17225554
N       -1.32943710       0.30696870       0.06386690       0.23468698       0.21680975       0.01993967       1.04019879       4.65981748      -6.19980128       0.80551181       4.44300773      -6.21974095       0.80551181       4.44300773      -6.21974095
H       -4.99093500       4.17876450      -2.97317670       0.10065995       0.12918894      -0.15755242       0.18894627       0.25786053      -0.30988563       0.08828632       0.12867159      -0.15233321       0.08828632       0.12867159      -0.15233321
H       -4.64768700       4.62244860      -3.51135670      -0.10012026      -0.12999599       0.15813475      -0.18803929      -0.26094442       0.31254903      -0.08791903      -0.13094843       0.15441428      -0.08791903      -0.13094843       0.15441428
H       -2.31821770       0.21547000      -0.60921390      -0.08621086      -0.24135468       0.21324217       3.05723668       2.17993214      -0.33599719       3.14344754       2.42128682      -0.54923936       3.14344754       2.42128682      -0.54923936
H       -0.33944660       0.58598110       0.35536570      -0.01379300      -0.06890547       0.02582488       0.12638161       1.29930009      -1.37953142       0.14017461       1.36820556      -1.40535630       0.14017461       1.36820556      -1.40535630
6
Properties=species:S:1:pos:R:3:REF_forces:R:3:x_forces:R:3:cas_forces:R:3:forces:R:3 state=2 data_path=dataset_delta/casscf_2nd_part/CAS_grad_x_points_with_old_xyz.json name=00573-fromIvanD REF_energy=-5.495802443640514 x_energy=-2566.8788853330093 cas_energy=-2561.383082889369 energy=-2561.383082889369 pbc="F F F"
C       -2.45131500       0.25956450       0.19825730       1.24867399       0.20362951      -0.13790451     -16.33349785      -0.18377383      -2.19767857     -17.58217184      -0.38740334      -2.05977406     -17.58217184      -0.38740334      -2.05977406
N       -1.22406660       0.15695610       0.07736870      -1.50896436      -0.07338045       0.21276180      18.30891662       0.94388691       3.18087713      19.81788098       1.01726736       2.96811533      19.81788098       1.01726736       2.96811533
H       -2.63674270       0.95686180       0.92876700       0.08418870       0.10897584      -0.29586754      -1.85151915       2.54612236       2.04731494      -1.93570785       2.43714652       2.34318248      -1.93570785       2.43714652       2.34318248
H       -3.16999680       0.25937870      -0.73525400      -0.10353665      -0.44440480       0.16828270       0.16803328      -0.37072436       1.43025173       0.27156993       0.07368044       1.26196903       0.27156993       0.07368044       1.26196903
H       -0.66559610      -0.36449720      -0.50445160       0.16160144       0.37331909      -0.21559819       1.44469752      -1.79610811      -3.26775718       1.28309608      -2.16942720      -3.05215899       1.28309608      -2.16942720      -3.05215899
H       -0.50659430       0.70990130       0.75148240       0.16741549      -0.34757470       0.26194966      -1.68725182      -1.31883847      -1.19938413      -1.85466731      -0.97126377      -1.46133379      -1.85466731      -0.97126377      -1.46133379
6
Properties=species:S:1:pos:R:3:REF_forces:R:3:x_forces:R:3:cas_forces:R:3:forces:R:3 state=2 data_path=dataset_delta/casscf_2nd_part/CAS_grad_x_points_with_old_xyz.json name=00396-5K_run35_step405 REF_energy=-4.564156623439885 x_energy=-2566.118108004446 cas_energy=-2561.5539513810063 energy=-2561.5539513810063 pbc="F F F"
C       -1.84681650      -0.57318800       0.82553040      -0.08663182       0.13526822      -0.24581942      -3.85832162      -8.31862025       8.01720034      -3.77168980      -8.45388847       8.26301976      -3.77168980      -8.45388847       8.26301976
N       -1.33621620       0.30376180       0.06316570       0.18500254       0.11273863       0.01746936       1.17907103       4.93586790      -5.69654857       0.99406849       4.82312927      -5.71401793       0.99406849       4.82312927      -5.71401793
H       -5.02335880       4.24913270      -3.00678200       0.10186976       0.11069814      -0.15294771       0.21590213       0.24712438      -0.33700444       0.11403237       0.13642624      -0.18405673       0.11403237       0.13642624      -0.18405673
H       -4.65515750       4.65167920      -3.56232470      -0.10139993      -0.11140195       0.15343846      -0.21496584      -0.25002376       0.33959704      -0.11356591      -0.13862181       0.18615858      -0.11356591      -0.13862181       0.18615858
H       -2.29712600       0.24185820      -0.56917170      -0.07784418      -0.19858444       0.19148570       2.65114206       2.23553004      -0.90774871       2.72898624       2.43411448      -1.09923441       2.72898624       2.43411448      -1.09923441
H       -0.35552810       0.62686210       0.34368750      -0.02092675      -0.04912253       0.03628836       0.02724187       1.14971777      -1.41558091       0.04816862       1.19884030      -1.45186927       0.04816862       1.19884030      -1.45186927
6
Properties=species:S:1:pos:R:3:REF_forces:R:3:x_forces:R:3:cas_forces:R:3:forces:R:3 state=2 data_path=dataset_delta/casscf_2nd_part/CAS_grad_x_points_with_old_xyz.json name=00218-0K_run85_step30 REF_energy=-5.311465968876291 x_energy=-2568.1479378543663 cas_energy=-2562.83647188549 energy=-2562.83647188549 pbc="F F F"
C       -2.61031090       0.39043110       0.15758520       0.44352428      -0.04676022       0.11952598      -1.36827852       0.55747604      -1.12975212      -1.81180280       0.60423626      -1.24927810      -1.81180280       0.60423626      -1.24927810
N       -1.04515450       0.09845670       0.09811870      -0.57547429       0.44642341      -0.28120118      -0.10645407      -3.64720925      -2.66614949       0.46902022      -4.09363266      -2.38494831       0.46902022      -4.09363266      -2.38494831
H       -2.96801160       0.76863830       1.06252900       0.03380804      -0.06155685      -0.08331651       0.56575103       1.53470666       2.63092918       0.53194299       1.59626351       2.71424569       0.53194299       1.59626351       2.71424569
H       -3.17514100      -0.33680060      -0.38343150       0.07346425      -0.01296597       0.01635033       0.24595499      -1.57141569      -1.87293191       0.17249074      -1.55844972      -1.88928224       0.17249074      -1.55844972      -1.88928224
H       -0.81540970      -0.22542300      -0.90694150       0.01445030      -0.18882740       0.06181308      -0.49520536       1.08397676       1.28086106      -0.50965566       1.27280416       1.21904798      -0.50965566       1.27280416       1.21904798
H       -0.64019800       0.58766120       0.83849130       0.01104548      -0.13619655       0.16527804       1.15905000       2.04258190       1.75549301       1.14800452       2.17877845       1.59021497       1.14800452       2.17877845       1.59021497
6
Properties=species:S:1:pos:R:3:REF_forces:R:3:x_forces:R:3:cas_forces:R:3:forces:R:3 state=2 data_path=dataset_delta/casscf_2nd_part/CAS_grad_x_points_with_old_xyz.json name=00392-5K_run35_step444 REF_energy=-4.530585239835091 x_energy=-2565.815769445427 cas_energy=-2561.285184205592 energy=-2561.285184205592 pbc="F F F"
C       -1.61464620      -0.76247080       0.93120570      -0.16154438      -1.11332456       0.96051022       0.57958028       1.41274005      -2.33720787       0.74112466       2.52606461      -3.29771809       0.74112466       2.52606461      -3.29771809
N       -1.43017490       0.22949690       0.10820280      -0.54156218       1.72806519      -1.35889614      -0.63056135       2.53654299       2.41272416      -0.08899917       0.80847780       3.77162030      -0.08899917       0.80847780       3.77162030
H       -5.46317150       5.64872920      -3.89873070       0.13493126      -0.13093458      -0.12110044       0.27625667      -0.26839121      -0.24192854       0.14132541      -0.13745663      -0.12082810       0.14132541      -0.13745663      -0.12082810
H       -4.99299330       5.19370070      -4.31902810      -0.13475193       0.13064715       0.12126980      -0.27523147       0.26714977       0.24249732      -0.14047954       0.13650262       0.12122752      -0.14047954       0.13650262       0.12122752
H       -2.34824580       1.08333120      -0.39237450       0.67701031      -0.61062123       0.35058238      -1.61501847      -1.30699920      -0.42279157      -2.29202878      -0.69637797      -0.77337395      -2.29202878      -0.69637797      -0.77337395
H       -0.94674660       1.19965340      -0.07154990       0.02696491      -0.00298721       0.04645384       1.66602232      -2.64019764       0.34552616       1.63905741      -2.63721043       0.29907232       1.63905741      -2.63721043       0.29907232
6
Properties=species:S:1:pos:R:3:REF_forces:R:3:x_forces:R:3:cas_forces:R:3:forces:R:3 state=2 data_path=dataset_delta/casscf_2nd_part/CAS_grad_x_points_with_old_xyz.json name=00577-fromIvanD REF_energy=-4.612230612347048 x_energy=-2565.470977021414 cas_energy=-2560.858746409067 energy=-2560.858746409067 pbc="F F F"
C       -2.14658780      -0.31274440       0.69288080      -0.31617017      -0.13521225       0.01854449      -5.22893830      -2.11876765       5.56600080      -4.91276813      -1.98355540       5.54745631      -4.91276813      -1.98355540       5.54745631
N       -1.22768300       0.31406760       0.06744890       0.24094163       0.23567199       0.01571030       4.99923542      -0.82410198      -1.80479690       4.75829379      -1.05977397      -1.82050720       4.75829379      -1.05977397      -1.82050720
H       -4.14979660       2.84875210      -2.32933040      -0.08234557       0.24367118       0.05720056      -0.40965858       0.82877480       0.25794425      -0.32731301       0.58510362       0.20074369      -0.32731301       0.58510362       0.20074369
H       -4.51147090       3.51091510      -2.08252620       0.17166456      -0.24498090      -0.05629338       0.50351064      -0.83616169      -0.25671130       0.33184608      -0.59118079      -0.20041792       0.33184608      -0.59118079      -0.20041792
H       -1.41282860       0.08962450      -0.83690330       0.05328397      -0.10745908       0.11246660      -1.87129515       1.59688864      -6.09223757      -1.92457912       1.70434772      -6.20470417      -1.92457912       1.70434772      -6.20470417
H       -0.24665580      -0.01579570      -0.02210560      -0.06810079       0.00828180      -0.14739121       2.00641959       1.35334062       2.33003809       2.07452038       1.34505882       2.47742930       2.07452038       1.34505882       2.47742930
6
Properties=species:S:1:pos:R:3:REF_forces:R:3:x_forces:R:3:cas_forces:R:3:forces:R:3 state=2 data_path=dataset_delta/casscf_2nd_part/CAS_grad_x_points_with_old_xyz.json name=00365-0K_run06_step114 REF_energy=-5.092486918460509 x_energy=-2566.159244452228 cas_energy=-2561.0667575337675 energy=-2561.0667575337675 pbc="F F F"
C       -3.02515500       0.34847150       0.22524040      -0.18400386      -0.10072930       0.45402340       2.54013328      -1.40462384       3.19841797       2.72413714      -1.30389454       2.74439457       2.72413714      -1.30389454       2.74439457
N       -0.63810480       0.09760110      -0.07490660      -0.00018018       0.00057948      -0.04255484      -1.77340044       0.02580277       6.80344076      -1.77322026       0.02522329       6.84599560      -1.77322026       0.02522329       6.84599560
H       -3.57323100       0.05798360       1.10248370       0.15913286      -0.07765781       0.05512123       0.55430160      -0.65552635       1.48104711       0.39516874      -0.57786854       1.42592588       0.39516874      -0.57786854       1.42592588
H       -3.50235050       0.70423630      -0.56766070      -0.18783884       0.22804639      -0.59017610      -1.25293528       1.98190607      -4.82338059      -1.06509644       1.75385968      -4.23320449      -1.06509644       1.75385968      -4.23320449
H       -0.84828850      -0.45386060       0.95809200       0.20251802       0.18200826       0.06500608      -0.69750542      -2.52587081      -3.34075594      -0.90002344      -2.70787907      -3.40576202      -0.90002344      -2.70787907      -3.40576202
H       -0.43062140       0.77516770       0.77437160       0.01021913      -0.23231541       0.05705172       0.62925338       2.57824377      -3.32029783       0.61903425       2.81055918      -3.37734955       0.61903425       2.81055918      -3.37734955
6
Properties=species:S:1:pos:R:3:REF_forces:R:3:x_forces:R:3:cas_forces:R:3:forces:R:3 state=2 data_path=dataset_delta/casscf_2nd_part/CAS_grad_x_points_with_old_xyz.json name=00040-0K_run53_step214 REF_energy=-5.241357645090375 x_energy=-2564.952497960773 cas_energy=-2559.7111403156828 energy=-2559.7111403156828 pbc="F F F"
C       -3.49557030       0.36061660       0.27294840      -0.14804057       0.07531351       0.03596128       0.36641061       1.97321250      -1.13572042       0.51445118       1.89789899      -1.17168170       0.51445118       1.89789899      -1.17168170
N       -0.39087820       0.11595170      -0.01783280      -0.24214944       0.23997255       0.17796924       2.51741172       2.06254986      -1.45657643       2.75956116       1.82257731      -1.63454567       2.75956116       1.82257731      -1.63454567
H       -3.75993790      -0.36467020       1.20318810       0.12967882      -0.02611002      -0.08263556       0.79440147       1.53194997      -1.54366623       0.66472265       1.55805999      -1.46103067       0.66472265       1.55805999      -1.46103067
H       -3.11117240       1.55701390      -0.49245270       0.09139261      -0.09479652      -0.00391896      -0.96141700      -3.58079359       2.55713033      -1.05280961      -3.48599707       2.56104929      -1.05280961      -3.48599707       2.56104929
H        0.00977590      -0.65262690       0.37311950       0.12070067      -0.03479552      -0.07421062      -1.45176796      -4.82041749       3.37032667      -1.57246863      -4.78562197       3.44453729      -1.57246863      -4.78562197       3.44453729
H        0.52518740       0.36868930      -0.42491950       0.04908835      -0.15945771      -0.05311594      -1.26436841       2.83362504      -1.79144449      -1.31345676       2.99308275      -1.73832855      -1.31345676       2.99308275      -1.73832855
6
Properties=species:S:1:pos:R:3:REF_forces:R:3:x_forces:R:3:cas_forces:R:3:forces:R:3 state=2 data_path=dataset_delta/casscf_2nd_part/CAS_grad_x_points_with_old_xyz.json name=00255-5K_run35_step464 REF_energy=-4.641301612737152 x_energy=-2565.8190755387873 cas_energy=-2561.17777392605 energy=-2561.17777392605 pbc="F F F"
C       -1.48736060      -0.82955300       0.96024220      -0.00584406      -0.23090493       0.16832204       0.14962752       4.16271167      -3.77691170       0.15547158       4.39361660      -3.94523374       0.15547158       4.39361660      -3.94523374
N       -1.49969250       0.23321720       0.13628170      -0.00501971       0.20494234      -0.14746519      -2.97218622      -1.06575186       3.15377076      -2.96716651      -1.27069420       3.30123595      -2.96716651      -1.27069420       3.30123595
H       -5.56703270       6.30760230      -4.48159540       0.07866381      -0.21820644      -0.02793781       0.63748687      -1.76807080      -0.22175653       0.55882306      -1.54986436      -0.19381872       0.55882306      -1.54986436      -0.19381872
H       -5.28766810       5.53018550      -4.58142200      -0.07841069       0.21778557       0.02826725      -0.63702994       1.76699875       0.22192638      -0.55861925       1.54921318       0.19365913      -0.55861925       1.54921318       0.19365913
H       -2.37008100       0.97495930      -0.20489870       0.24335819       0.01729923       0.01060829      -1.59099480      -2.88257566       0.63287555      -1.83435299      -2.89987489       0.62226726      -1.83435299      -2.89987489       0.62226726
H       -1.05610170       1.09534680      -0.15098090      -0.23263787       0.00898591      -0.03102279       4.41320625      -0.21341042      -0.00913266       4.64584412      -0.22239633       0.02189013       4.64584412      -0.22239633       0.02189013
6
Properties=species:S:1:pos:R:3:REF_forces:R:3:x_forces:R:3:cas_forces:R:3:forces:R:3 state=2 data_path=dataset_delta/casscf_2nd_part/CAS_grad_x_points_with_old_xyz.json name=00572-fromIvanD REF_energy=-5.244847236744135 x_energy=-2566.572897353703 cas_energy=-2561.328050116959 energy=-2561.328050116959 pbc="F F F"
C       -3.42351250       0.42215700       0.28568790       0.19054995      -0.04809361       0.01788017       2.02717168      -0.20225147      -2.52613815       1.83662173      -0.15415786      -2.54401832       1.83662173      -0.15415786      -2.54401832
N       -0.45742930       0.10283620       0.05184220      -0.19424766       0.08943555       0.30712067       0.27542477       2.39711257      -0.09413488       0.46967243       2.30767702      -0.40125555       0.46967243       2.30767702      -0.40125555
H       -3.20120220      -0.35379790       1.16443700      -0.05845603       0.04121310      -0.05794232      -0.25871697       1.19427792      -1.44755299      -0.20026094       1.15306482      -1.38961067      -0.20026094       1.15306482      -1.38961067
H       -2.90777670       0.72517700      -1.01773820      -0.01991554      -0.02449812       0.00870707      -1.37371723      -1.04782587       3.94847289      -1.35380169      -1.02332775       3.93976582      -1.35380169      -1.02332775       3.93976582
H       -0.22355840      -0.79405910      -0.16246630       0.02491998      -0.10026258      -0.13412626      -0.39986956      -4.43487761      -0.00989283      -0.42478954      -4.33461503       0.12423343      -0.42478954      -4.33461503       0.12423343
H        0.13222500       0.77326170      -0.39960210       0.05725825       0.04212128      -0.14147075      -0.27018373       2.09348008       0.12941453      -0.32744198       2.05135880       0.27088528      -0.32744198       2.05135880       0.27088528
6
Properties=species:S:1:pos:R:3:REF_forces:R:3:x_forces:R:3:cas_forces:R:3:forces:R:3 state=2 data_path=dataset_delta/casscf_2nd_part/CAS_grad_x_points_with_old_xyz.json name=00307-5K_run35_step182 REF_energy=-4.835288173464505 x_energy=-2566.6611381971416 cas_energy=-2561.825850023677 energy=-2561.825850023677 pbc="F F F"
C       -2.72887840       0.37684310       0.14777850       0.43702463       0.60747957       0.19412981      -0.63760556       7.02864699       1.74341531      -1.07463019       6.42116742       1.54928550      -1.07463019       6.42116742       1.54928550
N       -1.02818750       0.13205510       0.06006930      -0.51919240       0.10844671      -0.05562335       6.43259880      -0.85024933      -1.24282220       6.95179120      -0.95869604      -1.18719885       6.95179120      -0.95869604      -1.18719885
H       -2.76046980       1.26281330       0.92793770      -0.02253591      -0.06892302      -0.05424334      -0.15775128      -1.60782246      -1.39126460      -0.13521537      -1.53889944      -1.33702126      -0.13521537      -1.53889944      -1.33702126
H       -2.74601110      -0.60326410       0.02245110       0.11011298      -0.57317242      -0.12787705      -1.16600293      -5.53151773      -0.74731052      -1.27611591      -4.95834531      -0.61943347      -1.27611591      -4.95834531      -0.61943347
H       -0.13831120       0.04032520      -0.60515010      -0.01611558      -0.08491384       0.06661508      -3.24486911       0.97510941      -0.61908662      -3.22875353       1.06002325      -0.68570170      -3.22875353       1.06002325      -0.68570170
H       -0.70312270      -0.17468290       0.95567290       0.01065927       0.01122322      -0.02305693      -1.22641692      -0.01402665       2.25701284      -1.23707619      -0.02524987       2.28006977      -1.23707619      -0.02524987       2.28006977
6
Properties=species:S:1:pos:R:3:REF_forces:R:3:x_forces:R:3:cas_forces:R:3:forces:R:3 state=2 data_path=dataset_delta/casscf_2nd_part/CAS_grad_x_points_with_old_xyz.json name=00571-fromIvanD REF_energy=-4.601683653141208 x_energy=-2565.735685613025 cas_energy=-2561.134001959884 energy=-2561.134001959884 pbc="F F F"
C       -2.12106280      -0.33337060       0.70133430      -0.20047823      -0.12823391      -0.04390217      -5.82324627      -2.98189461       6.59883338      -5.62276804      -2.85366070       6.64273555      -5.62276804      -2.85366070       6.64273555
N       -1.23500130       0.31792640       0.06998810       0.25578057       0.25336835       0.02199651       5.10217808      -0.76805254      -4.88218270       4.84639751      -1.02142089      -4.90417921       4.84639751      -1.02142089      -4.90417921
H       -4.21698520       2.93070370      -2.37507630      -0.06786641       0.15470673       0.03840639      -0.20453076       0.44394362       0.09275795      -0.13666435       0.28923689       0.05435156      -0.13666435       0.28923689       0.05435156
H       -4.52408910       3.62840620      -2.20599040       0.06860681      -0.15523247      -0.03769856       0.20854163      -0.44983659      -0.09185308       0.13993482      -0.29460412      -0.05415452       0.13993482      -0.29460412      -0.05415452
H       -1.54569000       0.06854630      -0.85343840      -0.01553478      -0.12039327       0.12901242      -0.46480052       2.18523988      -3.25291122      -0.44926574       2.30563315      -3.38192364      -0.44926574       2.30563315      -3.38192364
H       -0.23225520       0.00500560       0.02741830      -0.04027600      -0.00441851      -0.10770672       1.18208981       1.57039717       1.53546354       1.22236581       1.57481568       1.64317026       1.22236581       1.57481568       1.64317026
6
Properties=species:S:1:pos:R:3:REF_forces:R:3:x_forces:R:3:cas_forces:R:3:forces:R:3 state=2 data_path=dataset_delta/casscf_2nd_part/CAS_grad_x_points_with_old_xyz.json name=00369-5K_run35_step341 REF_energy=-4.636350121124451 x_energy=-2565.3737092827655 cas_energy=-2560.737359161641 energy=-2560.737359161641 pbc="F F F"
C       -2.22720000      -0.24307490       0.66601320      -0.44729716      -0.21851405       0.22208760      -1.48540272       0.46043499       1.72549831      -1.03810556       0.67894904       1.50341071      -1.03810556       0.67894904       1.50341071
N       -1.20288020       0.29788800       0.06861700       0.41358260       0.23860153      -0.19568237       2.42830427      -3.37483232      -4.60503838       2.01472167      -3.61343385      -4.40935601       2.01472167      -3.61343385      -4.40935601
H       -3.95335790       2.61474420      -2.16444090      -0.07892357       0.07538194       0.07537790      -1.07774384       1.04647228       0.99578195      -0.99882027       0.97109034       0.92040405      -0.99882027       0.97109034       0.92040405
H       -4.44833160       3.09644750      -1.69748240       0.08232871      -0.07885603      -0.07237708       1.08928203      -1.05770430      -0.99175447       1.00695332      -0.97884827      -0.91937739       1.00695332      -0.97884827      -0.91937739
H       -1.08122190       0.16385550      -1.00728830       0.15133963      -0.06664567       0.17940689      -2.94216041       2.24096561      -1.10775530      -3.09350004       2.30761128      -1.28716219      -3.09350004       2.30761128      -1.28716219
H       -0.23555210      -0.06966790      -0.09707470      -0.12145011       0.05041510      -0.20855110       1.98730076       0.68504658       3.98352973       2.10875087       0.63463148       4.19208083       2.10875087       0.63463148       4.19208083
6
Properties=species:S:1:pos:R:3:REF_forces:R:3:x_forces:R:3:cas_forces:R:3:forces:R:3 state=2 data_path=dataset_delta/casscf_2nd_part/CAS_grad_x_points_with_old_xyz.json name=00010-0K_run85_step139 REF_energy=-5.1803868083211455 x_energy=-2567.2829328202556 cas_energy=-2562.1025460119345 energy=-2562.1025460119345 pbc="F F F"
C       -3.06349700       0.41155800       0.32295300       0.00873639      -0.00717776       0.23717848       0.34988351       0.59744250      -4.62745691       0.34114712       0.60462026      -4.86463539       0.34114712       0.60462026      -4.86463539
N       -0.67031380       0.04453080      -0.02790120       0.22576648       0.08455175       0.10456773      -1.36561496       0.42358650      -0.06526309      -1.59138144       0.33903475      -0.16983082      -1.59138144       0.33903475      -0.16983082
H       -3.07462840       1.09450730      -0.62370940      -0.10510037      -0.25140049      -0.01847037       1.36673416       1.70261128       1.99035009       1.47183453       1.95401177       2.00882046       1.47183453       1.95401177       2.00882046
H       -3.61126700      -0.47263390       0.01520560       0.00992136       0.26100802      -0.19268481      -0.27145205      -2.56996271       2.46566703      -0.28137341      -2.83097073       2.65835184      -0.28137341      -2.83097073       2.65835184
H       -0.56891230       1.12148020       0.05334460      -0.08779630      -0.01551731      -0.08708441       0.42010209      -1.59584637       0.68592559       0.50789839      -1.58032906       0.77301000       0.50789839      -1.58032906       0.77301000
H       -0.26903000      -0.54632150       0.78053640      -0.05143145      -0.07150874      -0.04342486      -0.49955664       1.44212426      -0.44914095      -0.44812519       1.51363300      -0.40571609      -0.44812519       1.51363300      -0.40571609
6
Properties=species:S:1:pos:R:3:REF_forces:R:3:x_forces:R:3:cas_forces:R:3:forces:R:3 state=2 data_path=dataset_delta/casscf_2nd_part/CAS_grad_x_points_with_old_xyz.json name=00575-fromIvanD REF_energy=-5.735689051699865 x_energy=-2563.9119633834334 cas_energy=-2558.1762743317336 energy=-2558.1762743317336 pbc="F F F"
C       -2.32763450       0.35631180       0.19251500       0.21367429      -0.51564700       0.37386917     -26.72012636       7.50936202       3.27289167     -26.93380065       8.02500902       2.89902250     -26.93380065       8.02500902       2.89902250
N       -1.30191670       0.11249320       0.07520520      -0.51411390       1.34078326      -0.14891453      28.84303174      -4.02216091       0.32311334      29.35714564      -5.36294417       0.47202787      29.35714564      -5.36294417       0.47202787
H       -2.88116200      -0.60167500      -0.48494140       0.67998783       0.27671147       0.32740054      -0.89770351      -0.12371805      -0.29491928      -1.57769134      -0.40042952      -0.62231982      -1.57769134      -0.40042952      -0.62231982
H       -2.99911020       0.91970980       0.85459790       0.11725942       0.13659166      -0.24868692      -0.82254384       0.50142347       0.32768008      -0.93980326       0.36483181       0.57636700      -0.93980326       0.36483181       0.57636700
H       -0.39268330       0.93313320       0.64378840      -0.34178604      -0.38861452       0.04577807      -1.25502661      -0.23841795      -1.15859080      -0.91324057       0.15019657      -1.20436887      -0.91324057       0.15019657      -1.20436887
H       -1.35239710      -0.87340720      -0.35104220      -0.16291781      -0.85991321      -0.32199101       0.84447237      -3.63657692      -2.44271968       1.00739018      -2.77666371      -2.12072867       1.00739018      -2.77666371      -2.12072867
6
Properties=species:S:1:pos:R:3:REF_forces:R:3:x_forces:R:3:cas_forces:R:3:forces:R:3 state=2 data_path=dataset_delta/casscf_2nd_part/CAS_grad_x_points_with_old_xyz.json name=00344-5K_run35_step349 REF_energy=-4.629038804237098 x_energy=-2565.269856482633 cas_energy=-2560.6408176783957 energy=-2560.6408176783957 pbc="F F F"
C       -2.17827030      -0.28652770       0.68268410      -0.39624018      -0.16237779       0.19640776      -3.99817108      -1.03798337       4.13192214      -3.60193090      -0.87560558       3.93551438      -3.60193090      -0.87560558       3.93551438
N       -1.21800560       0.30859140       0.06643030       0.36835178       0.13410564      -0.13937875       3.75278251      -1.70457833      -1.22844757       3.38443073      -1.83868397      -1.08906882       3.38443073      -1.83868397      -1.08906882
H       -4.06886010       2.75157680      -2.27019970      -0.19941434       0.24443834       0.18066632      -0.85328981       1.17361026       0.68208086      -0.65387547       0.92917192       0.50141454      -0.65387547       0.92917192       0.50141454
H       -4.49261430       3.35873410      -1.93014550       0.20112977      -0.24632399      -0.17894438       0.86114098      -1.18237983      -0.67978718       0.66001121      -0.93605584      -0.50084280       0.66001121      -0.93605584      -0.50084280
H       -1.26619030       0.11558900      -0.86505330       0.12327735      -0.09288422       0.13094100      -2.50564656       1.68081269      -6.16276685      -2.62892391       1.77369691      -6.29370785      -2.62892391       1.77369691      -6.29370785
H       -0.25527550      -0.03746210      -0.06955470      -0.09629643       0.02600092      -0.19061508       2.74399190       0.97347748       3.25607547       2.84028833       0.94747656       3.44669055       2.84028833       0.94747656       3.44669055
6