6
Properties=species:S:1:pos:R:3:REF_forces:R:3:x_forces:R:3:cas_forces:R:3:forces:R:3 state=0 data_path=dataset_delta/casscf_2nd_part/CAS_grad_x_points_with_old_xyz.json name=00570-fromIvanD REF_energy=-4.423224130288872 x_energy=-2571.9159399510677 cas_energy=-2567.492715820779 energy=-2567.492715820779 pbc="F F F"
C       -2.04544550      -0.39446970       0.72965670      -0.03677707      -0.01659817      -0.08283197      -0.75995886       0.01310599       0.73847472      -0.72318179       0.02970416       0.82130669      -0.72318179       0.02970416       0.82130669
N       -1.25520110       0.32484290       0.07686540       0.08842219       0.11683867       0.10395544      -0.31086743      -1.91499491      -2.05921689      -0.39928962      -2.03183358      -2.16317233      -0.39928962      -2.03183358      -2.16317233
H       -4.42292310       3.18720050      -2.51109600      -0.03588488       0.21273593      -0.01740051      -0.18372004       0.99764055      -0.09431013      -0.14783516       0.78490462      -0.07690962      -0.14783516       0.78490462      -0.07690962
H       -4.55749520       3.97006380      -2.57761150       0.03678095      -0.21377262       0.01827883       0.18488074      -1.00240702       0.09520832       0.14809979      -0.78863440       0.07692949       0.14809979      -0.78863440       0.07692949
H       -1.95217070       0.03137160      -0.94695740      -0.01071452      -0.07418538       0.03385338       2.24385337       1.05747465       2.13219678       2.25456789       1.13166003       2.09834340       2.25456789       1.13166003       2.09834340
H       -0.19421410       0.09699270       0.19490520      -0.04188334      -0.02489520      -0.05589534      -1.17424445       0.84930398      -0.81239297      -1.13236111       0.87419918      -0.75649763      -1.13236111       0.87419918      -0.75649763
6
Properties=species:S:1:pos:R:3:REF_forces:R:3:x_forces:R:3:cas_forces:R:3:forces:R:3 state=0 data_path=dataset_delta/casscf_2nd_part/CAS_grad_x_points_with_old_xyz.json name=00451-5K_run08_step85 REF_energy=-5.076086979865067 x_energy=-2567.620301009246 cas_energy=-2562.544214029381 energy=-2562.544214029381 pbc="F F F"
C       -3.06962260       0.46201490       0.30602690       0.29352563      -0.46045220      -0.45106714       5.75009072       6.35274552       9.76427926       5.45656509       6.81319772      10.21534640       5.45656509       6.81319772      10.21534640
N       -0.56504970       0.10559900      -0.12534960       0.05321508       0.03582476       0.00004520      -3.85238037      -1.10787075       3.47382031      -3.90559545      -1.14369551       3.47377511      -3.90559545      -1.14369551       3.47377511
H       -3.28487810       0.74911550       1.40621100      -0.12278938       0.21948509       0.43641503      -0.10372649      -0.37128784      -1.86302380       0.01906289      -0.59077293      -2.29943883       0.01906289      -0.59077293      -2.29943883
H       -3.38090250      -0.03750770      -0.40006020      -0.09947778       0.14694402       0.01462479      -4.36717959      -6.15218609      -8.27964129      -4.26770181      -6.29913011      -8.29426608      -4.26770181      -6.29913011      -8.29426608
H       -0.92464170      -0.88664750       0.08778120      -0.08635626       0.08312614       0.03035709       1.18505583      -1.15290146      -2.58224297       1.27141209      -1.23602760      -2.61260006       1.27141209      -1.23602760      -2.61260006
H       -1.18098690       0.03918560       0.88070770      -0.03897030      -0.02525588      -0.03065738       1.38728689       2.43117255      -0.51347392       1.42625719       2.45642843      -0.48281654       1.42625719       2.45642843      -0.48281654
6
Properties=species:S:1:pos:R:3:REF_forces:R:3:x_forces:R:3:cas_forces:R:3:forces:R:3 state=0 data_path=dataset_delta/casscf_2nd_part/CAS_grad_x_points_with_old_xyz.json name=00571-fromIvanD REF_energy=-4.464747685071416 x_energy=-2572.345536845426 cas_energy=-2567.8807891603547 energy=-2567.8807891603547 pbc="F F F"
C       -2.12106280      -0.33337060       0.70133430      -0.03450498      -0.01483330      -0.02794110      -0.18434400       0.33861519       0.89291622      -0.14983902       0.35344849       0.92085732      -0.14983902       0.35344849       0.92085732
N       -1.23500130       0.31792640       0.06998810       0.02299609       0.06674990       0.06349173       1.08373169      -1.46271859       0.96603490       1.06073560      -1.52946849       0.90254317       1.06073560      -1.52946849       0.90254317
H       -4.21698520       2.93070370      -2.37507630      -0.08226482       0.18810086       0.04687186      -0.21888955       0.47917746       0.10099772      -0.13662473       0.29107660       0.05412586      -0.13662473       0.29107660       0.05412586
H       -4.52408910       3.62840620      -2.20599040       0.08364571      -0.18956514      -0.04551371       0.22290453      -0.48584608      -0.09997339       0.13925882      -0.29628094      -0.05445968       0.13925882      -0.29628094      -0.05445968
H       -1.54569000       0.06854630      -0.85343840       0.09104989      -0.04701248       0.06774690      -1.08326817       0.38309666      -2.68997631      -1.17431806       0.43010914      -2.75772321      -1.17431806       0.43010914      -2.75772321
H       -0.23225520       0.00500560       0.02741830      -0.08092231      -0.00336281      -0.10466057       0.17986508       0.74775239       0.82999597       0.26078739       0.75111520       0.93465654       0.26078739       0.75111520       0.93465654
6
Properties=species:S:1:pos:R:3:REF_forces:R:3:x_forces:R:3:cas_forces:R:3:forces:R:3 state=0 data_path=dataset_delta/casscf_2nd_part/CAS_grad_x_points_with_old_xyz.json name=00572-fromIvanD REF_energy=-4.953114722429291 x_energy=-2568.5562531122932 cas_energy=-2563.603138389864 energy=-2563.603138389864 pbc="F F F"
C       -3.42351250       0.42215700       0.28568790       0.32081693      -0.08989655       0.00993724       2.95271803       0.04405061      -2.28866287       2.63190110       0.13394716      -2.29860011       2.63190110       0.13394716      -2.29860011
N       -0.45742930       0.10283620       0.05184220      -0.01817380      -0.03612908      -0.25730702      -3.42237043       3.40260584       1.65005998      -3.40419663       3.43873492       1.90736700      -3.40419663       3.43873492       1.90736700
H       -3.20120220      -0.35379790       1.16443700      -0.05718060       0.05835939      -0.05236795      -0.47436970       1.01297528      -1.65797332      -0.41718910       0.95461589      -1.60560537      -0.41718910       0.95461589      -1.60560537
H       -2.90777670       0.72517700      -1.01773820      -0.01591241      -0.00252179       0.04594709      -1.69536966      -1.19120298       3.91545622      -1.67945725      -1.18868119       3.86950913      -1.67945725      -1.18868119       3.86950913
H       -0.22355840      -0.79405910      -0.16246630      -0.13536390      -0.06379971       0.14429866       1.50630841      -4.02297513      -0.99222709       1.64167231      -3.95917542      -1.13652575       1.64167231      -3.95917542      -1.13652575
H        0.13222500       0.77326170      -0.39960210      -0.09411706       0.13399659       0.10947169       1.13315251       0.75455523      -0.62667322       1.22726957       0.62055864      -0.73614491       1.22726957       0.62055864      -0.73614491
6
Properties=species:S:1:pos:R:3:REF_forces:R:3:x_forces:R:3:cas_forces:R:3:forces:R:3 state=0 data_path=dataset_delta/casscf_2nd_part/CAS_grad_x_points_with_old_xyz.json name=00436-0K_run06_step257 REF_energy=-4.895480904433043 x_energy=-2574.759096046128 cas_energy=-2569.863615141695 energy=-2569.863615141695 pbc="F F F"
C       -2.39636550       0.34251410       0.18421000       0.64780172      -0.67488094      -0.33675427     -16.14442647       0.43226613       1.86132384     -16.79222819       1.10714707       2.19807811     -16.79222819       1.10714707       2.19807811
N       -1.25975130       0.13619430       0.08930360      -0.51947413       0.21917013      -0.02011584      16.55029509      -3.88465039      -1.36990269      17.06976922      -4.10382052      -1.34978685      17.06976922      -4.10382052      -1.34978685
H       -2.87639290      -0.68195180      -0.35864440       0.11777223       0.10002160       0.10046361      -0.88914452       3.47310010       1.40580429      -1.00691675       3.37307850       1.30534068      -1.00691675       3.37307850       1.30534068
H       -3.06037260       1.13443620       0.86517060      -0.21968676       0.35547144       0.20719675       2.20369500      -1.88588240      -2.08323037       2.42338176      -2.24135384      -2.29042712       2.42338176      -2.24135384      -2.29042712
H       -0.28888210       0.60059260       0.57930590       0.06801271      -0.02914038       0.08842244      -3.32104926      -1.10000543      -1.63670804      -3.38906197      -1.07086505      -1.72513048      -3.38906197      -1.07086505      -1.72513048
H       -1.15575610      -0.81626420      -0.52578990      -0.09314942       0.03074516      -0.03907668       1.60190651       2.96655900       1.82284898       1.69505593       2.93581384       1.86192566       1.69505593       2.93581384       1.86192566
6
Properties=species:S:1:pos:R:3:REF_forces:R:3:x_forces:R:3:cas_forces:R:3:forces:R:3 state=0 data_path=dataset_delta/casscf_2nd_part/CAS_grad_x_points_with_old_xyz.json name=00369-5K_run35_step341 REF_energy=-4.51736983494402 x_energy=-2571.589482753165 cas_energy=-2567.072112918221 energy=-2567.072112918221 pbc="F F F"
C       -2.22720000      -0.24307490       0.66601320      -0.03079282      -0.01266631       0.01192933       1.91179830       1.14131772      -0.98933980       1.94259112       1.15398403      -1.00126913       1.94259112       1.15398403      -1.00126913
N       -1.20288020       0.29788800       0.06861700      -0.00908916       0.03502578       0.04426861      -0.56416996      -2.11830840      -1.73287450      -0.55508080      -2.15333418      -1.77714311      -0.55508080      -2.15333418      -1.77714311
H       -3.95335790       2.61474420      -2.16444090      -0.13263685       0.12900047       0.12880628      -1.13166019       1.10067988       1.04744807      -0.99902334       0.97167941       0.91864179      -0.99902334       0.97167941       0.91864179
H       -4.44833160       3.09644750      -1.69748240       0.13583741      -0.13241197      -0.12590746       1.14285662      -1.11299819      -1.04381114       1.00701921      -0.98058622      -0.91790368       1.00701921      -0.98058622      -0.91790368
H       -1.08122190       0.16385550      -1.00728830       0.15898288      -0.05146961       0.11548552      -2.47120648       1.07387881       0.02882598      -2.63018936       1.12534842      -0.08665954      -2.63018936       1.12534842      -0.08665954
H       -0.23555210      -0.06966790      -0.09707470      -0.12237953       0.03260233      -0.17452767       1.11230364      -0.08448913       2.68980600       1.23468317      -0.11709146       2.86433367       1.23468317      -0.11709146       2.86433367
6
Properties=species:S:1:pos:R:3:REF_forces:R:3:x_forces:R:3:cas_forces:R:3:forces:R:3 state=0 data_path=dataset_delta/casscf_2nd_part/CAS_grad_x_points_with_old_xyz.json name=00397-0K_run06_step279 REF_energy=-5.125005964268894 x_energy=-2571.3984759464197 cas_energy=-2566.273469982151 energy=-2566.273469982151 pbc="F F F"
C       -2.36084150       0.38197700       0.20443580      -0.04017957       0.00500756       0.11751381     -11.19468325      -4.05680843      -6.67085276     -11.15450368      -4.06181599      -6.78836657     -11.15450368      -4.06181599      -6.78836657
N       -1.25080250       0.06360690       0.05108990       0.29044291       0.30331168       0.11595723      12.35069292       4.40814472       2.08245405      12.06025001       4.10483304       1.96649682      12.06025001       4.10483304       1.96649682
H       -2.95274190      -0.33620390      -0.57071690       0.16931171       0.10869742       0.08892355      -0.46052277       1.34654005       1.78449804      -0.62983448       1.23784263       1.69557449      -0.62983448       1.23784263       1.69557449
H       -2.93780090       0.71485200       0.88364140       0.05199561      -0.08705199      -0.11359941      -4.02665412       5.09997089       5.31513532      -4.07864973       5.18702288       5.42873473      -4.07864973       5.18702288       5.42873473
H       -0.62849300       1.24603570       0.64884290      -0.34048375      -0.41797489      -0.24763102       0.21208070      -4.51861721      -1.22470374       0.55256445      -4.10064232      -0.97707272       0.55256445      -4.10064232      -0.97707272
H       -1.43664880      -0.90806610      -0.09848870      -0.13166658       0.08814027       0.03867021       3.11850684      -2.27909996      -1.28669654       3.25017342      -2.36724023      -1.32536675       3.25017342      -2.36724023      -1.32536675
6
Properties=species:S:1:pos:R:3:REF_forces:R:3:x_forces:R:3:cas_forces:R:3:forces:R:3 state=0 data_path=dataset_delta/casscf_2nd_part/CAS_grad_x_points_with_old_xyz.json name=00010-0K_run85_step139 REF_energy=-4.999974817610109 x_energy=-2570.0816171591327 cas_energy=-2565.0816423415226 energy=-2565.0816423415226 pbc="F F F"
C       -3.06349700       0.41155800       0.32295300      -0.52112977       0.06725256      -0.11697335       2.52726162       0.55636105      -4.00314344       3.04839139       0.48910849      -3.88617009       3.04839139       0.48910849      -3.88617009
N       -0.67031380       0.04453080      -0.02790120       0.53659775       0.18179270       0.34383965      -3.09302561       1.56197984       2.59492046      -3.62962336       1.38018714       2.25108081      -3.62962336       1.38018714       2.25108081
H       -3.07462840       1.09450730      -0.62370940       0.12664627      -0.03218057       0.11624768       0.26505448       0.29126122       1.93973123       0.13840821       0.32344179       1.82348355       0.13840821       0.32344179       1.82348355
H       -3.61126700      -0.47263390       0.01520560       0.11720792       0.02125194       0.08495950      -0.50125069      -1.44447744       1.20733193      -0.61845861      -1.46572938       1.12237243      -0.61845861      -1.46572938       1.12237243
H       -0.56891230       1.12148020       0.05334460      -0.14207513      -0.13055061      -0.20525810       0.81509962      -1.73987027      -0.31561044       0.95717475      -1.60931966      -0.11035234       0.95717475      -1.60931966      -0.11035234
H       -0.26903000      -0.54632150       0.78053640      -0.11728658      -0.10763979      -0.22286671      -0.01317896       0.77467185      -1.42328106       0.10410762       0.88231164      -1.20041435       0.10410762       0.88231164      -1.20041435
6
Properties=species:S:1:pos:R:3:REF_forces:R:3:x_forces:R:3:cas_forces:R:3:forces:R:3 state=0 data_path=dataset_delta/casscf_2nd_part/CAS_grad_x_points_with_old_xyz.json name=00301-0K_run06_step98 REF_energy=-5.000737676490189 x_energy=-2569.3571778699147 cas_energy=-2564.3564401934245 energy=-2564.3564401934245 pbc="F F F"
C       -2.98058680       0.37182160       0.21694230      -0.04391148      -0.35346570       0.69044566       0.38721794      -0.49910551      -1.77917987       0.43112942      -0.14563981      -2.46962553       0.43112942      -0.14563981      -2.46962553
N       -0.68078310       0.13054910      -0.04944300       0.33287824       0.09110526      -0.28107377      -4.69498740      -5.33067568       0.29272233      -5.02786564      -5.42178094       0.57379610      -5.02786564      -5.42178094       0.57379610
H       -3.38965110       0.09933320       1.26721720       0.05371478       0.15247868      -0.12770351       0.38721665       0.41593063      -1.23116539       0.33350187       0.26345195      -1.10346188       0.33350187       0.26345195      -1.10346188
H       -3.66917160       0.44857100      -0.83134940      -0.26351974       0.13882030      -0.47604095       1.97129271      -0.09384589       2.79873980       2.23481245      -0.23266619       3.27478075       2.23481245      -0.23266619       3.27478075
H       -0.85048660      -0.77311750       0.85230580      -0.04868223       0.08804633       0.09021346       0.34439292       1.79265265      -3.22884235       0.39307515       1.70460632      -3.31905581       0.39307515       1.70460632      -3.31905581
H       -0.36384260       0.61528500       0.71452840      -0.03038347      -0.11695381       0.10409647       1.60496329       3.71507486       3.14766284       1.63534676       3.83202867       3.04356637       1.63534676       3.83202867       3.04356637
6
Properties=species:S:1:pos:R:3:REF_forces:R:3:x_forces:R:3:cas_forces:R:3:forces:R:3 state=0 data_path=dataset_delta/casscf_2nd_part/CAS_grad_x_points_with_old_xyz.json name=00365-0K_run06_step114 REF_energy=-4.980474337254236 x_energy=-2569.2788892758877 cas_energy=-2564.2984149386334 energy=-2564.2984149386334 pbc="F F F"
C       -3.02515500       0.34847150       0.22524040      -0.18795962      -0.35831856       0.58989792       5.00641543      -1.26686135       2.88560118       5.19437505      -0.90854279       2.29570326       5.19437505      -0.90854279       2.29570326
N       -0.63810480       0.09760110      -0.07490660       0.31764475       0.01852823      -0.31826785      -3.18157333      -0.32905089       5.40505600      -3.49921808      -0.34757912       5.72332385      -3.49921808      -0.34757912       5.72332385
H       -3.57323100       0.05798360       1.10248370       0.10003501       0.09992382      -0.12110887      -0.26638878      -0.60495033       1.24006860      -0.36642379      -0.70487415       1.36117747      -0.36642379      -0.70487415       1.36117747
H       -3.50235050       0.70423630      -0.56766070      -0.17257788       0.22346307      -0.39580949      -2.19949490       1.85812914      -4.61310953      -2.02691702       1.63466607      -4.21730004      -2.02691702       1.63466607      -4.21730004
H       -0.84828850      -0.45386060       0.95809200      -0.03402986       0.18597394       0.10856207       0.41055980      -0.75120945      -2.92753176       0.44458966      -0.93718339      -3.03609383       0.44458966      -0.93718339      -3.03609383
H       -0.43062140       0.77516770       0.77437160      -0.02315025      -0.16963284       0.13883797       0.23044393       1.09388055      -1.98797274       0.25359418       1.26351339      -2.12681071       0.25359418       1.26351339      -2.12681071
6
Properties=species:S:1:pos:R:3:REF_forces:R:3:x_forces:R:3:cas_forces:R:3:forces:R:3 state=0 data_path=dataset_delta/casscf_2nd_part/CAS_grad_x_points_with_old_xyz.json name=00345-5K_run35_step366 REF_energy=-4.433581886714819 x_energy=-2572.255626540923 cas_energy=-2567.822044654208 energy=-2567.822044654208 pbc="F F F"
C       -2.07037270      -0.37416120       0.71970190      -0.03611497      -0.01845900      -0.06858421      -0.64401768       0.05368196       0.92252237      -0.60790271       0.07214096       0.99110658      -0.60790271       0.07214096       0.99110658
N       -1.24852950       0.32344030       0.07537250       0.07073579       0.10411364       0.09012899       0.01733320      -2.00592043      -2.09626494      -0.05340259      -2.11003407      -2.18639393      -0.05340259      -2.11003407      -2.18639393
H       -4.35366630       3.09965160      -2.46573410      -0.05172626       0.20502457       0.00409632      -0.16005746       0.58470999      -0.00222328      -0.10833120       0.37968542      -0.00631960      -0.10833120       0.37968542      -0.00631960
H       -4.54697800       3.85825340      -2.45375840       0.05272226      -0.20621670      -0.00311257       0.16194542      -0.58989236       0.00300480       0.10922316      -0.38367566       0.00611737       0.10922316      -0.38367566       0.00611737
H       -1.82345550       0.03725770      -0.92136830       0.01589403      -0.06573271       0.04602281       1.55232890       1.08385222       1.53641238       1.53643487       1.14958493       1.49038957       1.53643487       1.14958493       1.49038957
H       -0.20257220       0.06095320       0.13967440      -0.05161795      -0.01881542      -0.06848757      -0.92763949       0.87348300      -0.36338756      -0.87602154       0.89229842      -0.29489999      -0.87602154       0.89229842      -0.29489999
6
Properties=species:S:1:pos:R:3:REF_forces:R:3:x_forces:R:3:cas_forces:R:3:forces:R:3 state=0 data_path=dataset_delta/casscf_2nd_part/CAS_grad_x_points_with_old_xyz.json name=00255-5K_run35_step464 REF_energy=-4.504722850790131 x_energy=-2571.270167203688 cas_energy=-2566.7654443528977 energy=-2566.7654443528977 pbc="F F F"
C       -1.48736060      -0.82955300       0.96024220      -0.00318556       0.00660815       0.00284530      -0.03827360       3.78070037      -2.89501214      -0.03508804       3.77409222      -2.89785744      -0.03508804       3.77409222      -2.89785744
N       -1.49969250       0.23321720       0.13628170       0.07754740      -0.08733517       0.02213527      -3.56147324      -0.77696404       1.46168388      -3.63902064      -0.68962887       1.43954861      -3.63902064      -0.68962887       1.43954861
H       -5.56703270       6.30760230      -4.48159540       0.07685692      -0.21346466      -0.02742819       0.63574001      -1.76327291      -0.22075277       0.55888309      -1.54980825      -0.19332458       0.55888309      -1.54980825      -0.19332458
H       -5.28766810       5.53018550      -4.58142200      -0.07681639       0.21340447       0.02754917      -0.63544567       1.76240609       0.22064458      -0.55862928       1.54900162       0.19309541      -0.55862928       1.54900162       0.19309541
H       -2.37008100       0.97495930      -0.20489870       0.17017967       0.08886576      -0.01583581       0.13643298      -3.35855893       1.27337231      -0.03374669      -3.44742469       1.28920812      -0.03374669      -3.44742469       1.28920812
H       -1.05610170       1.09534680      -0.15098090      -0.24455664      -0.00831829      -0.00904642       3.46304492       0.35544969       0.16028346       3.70760156       0.36376798       0.16932988       3.70760156       0.36376798       0.16932988
6
Properties=species:S:1:pos:R:3:REF_forces:R:3:x_forces:R:3:cas_forces:R:3:forces:R:3 state=0 data_path=dataset_delta/casscf_2nd_part/CAS_grad_x_points_with_old_xyz.json name=00573-fromIvanD REF_energy=-4.892496103445865 x_energy=-2576.166822980992 cas_energy=-2571.274326877546 energy=-2571.274326877546 pbc="F F F"
C       -2.45131500       0.25956450       0.19825730       0.34137985       0.02065051       0.32386887      -4.04908643       1.55111292      -4.07201055      -4.39046628       1.53046241      -4.39587942      -4.39046628       1.53046241      -4.39587942
N       -1.22406660       0.15695610       0.07736870      -0.19434539       0.00311536      -0.02164036       5.79580314       2.01191460       3.51428285       5.99014853       2.00879924       3.53592321       5.99014853       2.00879924       3.53592321
H       -2.63674270       0.95686180       0.92876700       0.02254293      -0.07730032      -0.12747293      -1.78565612       1.57480759       2.59612158      -1.80819905       1.65210791       2.72359451      -1.80819905       1.65210791       2.72359451
H       -3.16999680       0.25937870      -0.73525400      -0.10078178       0.01877609      -0.19112321       1.12363752      -1.47396655       2.04477993       1.22441930      -1.49274264       2.23590314       1.22441930      -1.49274264       2.23590314
H       -0.66559610      -0.36449720      -0.50445160      -0.04545032       0.08495055       0.07815208       1.15347158      -2.05152049      -2.99787190       1.19892190      -2.13647104      -3.07602398       1.19892190      -2.13647104      -3.07602398
H       -0.50659430       0.70990130       0.75148240      -0.02276071      -0.05264199      -0.06193815      -2.23758512      -1.61479787      -1.08545561      -2.21482441      -1.56215588      -1.02351746      -2.21482441      -1.56215588      -1.02351746
6
Properties=species:S:1:pos:R:3:REF_forces:R:3:x_forces:R:3:cas_forces:R:3:forces:R:3 state=0 data_path=dataset_delta/casscf_2nd_part/CAS_grad_x_points_with_old_xyz.json name=00294-5K_run35_step368 REF_energy=-4.428031071862279 x_energy=-2572.0948697898557 cas_energy=-2567.6668387179934 energy=-2567.6668387179934 pbc="F F F"
C       -2.05786590      -0.38431830       0.72462050      -0.03606088      -0.01746133      -0.07665463      -0.70881370       0.02598594       0.83922675      -0.67275282       0.04344727       0.91588138      -0.67275282       0.04344727       0.91588138
N       -1.25185190       0.32425640       0.07624240       0.07959323       0.11107423       0.09828033      -0.16648208      -1.97436790      -2.15145758      -0.24607531      -2.08544213      -2.24973791      -0.24607531      -2.08544213      -2.24973791
H       -4.38819340       3.14299010      -2.48839010      -0.04381782       0.20924435      -0.00664360      -0.17681005       0.77672976      -0.03800230      -0.13299223       0.56748541      -0.03135870      -0.13299223       0.56748541      -0.03135870
H       -4.55233840       3.91459750      -2.51570990       0.04476486      -0.21035786       0.00755479       0.17831157      -0.78168602       0.03882412       0.13354671      -0.57132816       0.03126933       0.13354671      -0.57132816       0.03126933
H       -1.88929900       0.03342920      -0.93558970       0.00193104      -0.07034030       0.03960025       1.94866150       1.08798095       1.91247959       1.94673046       1.15832125       1.87287934       1.94673046       1.15832125       1.87287934
H       -0.19760790       0.07829370       0.16770120      -0.04643403      -0.02209125      -0.06218307      -1.07489084       0.86542511      -0.60111651      -1.02845681       0.88751636      -0.53893344      -1.02845681       0.88751636      -0.53893344
6
Properties=species:S:1:pos:R:3:REF_forces:R:3:x_forces:R:3:cas_forces:R:3:forces:R:3 state=0 data_path=dataset_delta/casscf_2nd_part/CAS_grad_x_points_with_old_xyz.json name=00040-0K_run53_step214 REF_energy=-4.892221111382696 x_energy=-2568.0916357071524 cas_energy=-2563.1994145957697 energy=-2563.1994145957697 pbc="F F F"
C       -3.49557030       0.36061660       0.27294840      -0.00612497       0.06773315       0.06219799       1.16990792       1.95984724      -1.14676393       1.17603289       1.89211409      -1.20896192       1.17603289       1.89211409      -1.20896192
N       -0.39087820       0.11595170      -0.01783280      -0.00018534      -0.00420142       0.04221186      -1.45746506       3.03953185      -1.69473208      -1.45727972       3.04373327      -1.73694394      -1.45727972       3.04373327      -1.73694394
H       -3.75993790      -0.36467020       1.20318810       0.07879528       0.00236049      -0.08928045       0.64828782       1.63888036      -1.58091098       0.56949254       1.63651987      -1.49163053       0.56949254       1.63651987      -1.49163053
H       -3.11117240       1.55701390      -0.49245270       0.03871995      -0.09025544       0.00509137      -1.13278829      -3.59302525       2.61859235      -1.17150824      -3.50276981       2.61350098      -1.17150824      -3.50276981       2.61350098
H        0.00977590      -0.65262690       0.37311950      -0.05468595       0.01132016      -0.00423588       0.87524626      -4.39416743       2.64293427       0.92993221      -4.40548759       2.64717015       0.92993221      -4.40548759       2.64717015
H        0.52518740       0.36868930      -0.42491950      -0.05638381       0.01301946      -0.01584205      -0.10305347       1.34890963      -0.83897679      -0.04666966       1.33589017      -0.82313474      -0.04666966       1.33589017      -0.82313474
6
Properties=species:S:1:pos:R:3:REF_forces:R:3:x_forces:R:3:cas_forces:R:3:forces:R:3 state=0 data_path=dataset_delta/casscf_2nd_part/CAS_grad_x_points_with_old_xyz.json name=00574-fromIvanD REF_energy=-4.786636484519931 x_energy=-2569.5929109765566 cas_energy=-2564.8062744920367 energy=-2564.8062744920367 pbc="F F F"
C       -3.58797870       0.57267500      -0.04399910       0.19232682       0.24385812       0.34155160       1.23428809       1.05390632       0.83825261       1.04196127       0.81004820       0.49670101       1.04196127       0.81004820       0.49670101
N       -0.43528300       0.19390700      -0.04207050      -0.32746187       0.18963182      -0.01319067       1.39131021      -0.05627050      -0.64999359       1.71877208      -0.24590232      -0.63680292       1.71877208      -0.24590232      -0.63680292
H       -3.37820670       1.08869980       0.97113400      -0.05492474       0.03863623      -0.02726562      -0.38663286      -0.96459282      -1.07160451      -0.33170812      -1.00322905      -1.04433889      -0.33170812      -1.00322905      -1.04433889
H       -3.43988210      -0.29990860      -0.70058460       0.00505506      -0.33023415      -0.30338472      -0.14989301      -0.21914954       0.33378269      -0.15494807       0.11108461       0.63716741      -0.15494807       0.11108461       0.63716741
H       -0.00743150      -0.09554590      -0.99294280       0.08715286      -0.05536466      -0.00115697      -0.62503384       0.36094512       1.29881477      -0.71218670       0.41630978       1.29997174      -0.71218670       0.41630978       1.29997174
H        0.44925470       0.33199690       0.57109780       0.09785402      -0.08674216       0.00351134      -1.46403644      -0.17505337      -0.74918702      -1.56189046      -0.08831121      -0.75269836      -1.56189046      -0.08831121      -0.75269836
6