6
Properties=species:S:1:pos:R:3:REF_forces:R:3:x_forces:R:3:cas_forces:R:3:forces:R:3 state=2 data_path=dataset_delta/casscf_2nd_part/CAS_grad_x_points_with_old_xyz.json name=00583-fromIvanD REF_energy=-5.427283063243522 x_energy=-2565.596894427242 cas_energy=-2560.1696113639987 energy=-2560.1696113639987 pbc="F F F"
C       -2.55327110       0.35130930       0.18685930       0.01229226      -1.02304336      -1.08040968       1.47488202       1.73805486       0.23028622       1.46258976       2.76109822       1.31069590       1.46258976       2.76109822       1.31069590
N       -1.09681360       0.17766140       0.01282550      -0.92108206       0.09064095       1.43163512      -1.81086702      -4.27129913       1.96553447      -0.88978496      -4.36194008       0.53389935      -0.88978496      -4.36194008       0.53389935
H       -3.18372510       0.64851350       1.14260050       0.29425533      -0.20488682       0.07241761       0.25839404      -0.23449728      -0.68564143      -0.03586129      -0.02961046      -0.75805904      -0.03586129      -0.02961046      -0.75805904
H       -3.43691370      -0.35074850      -0.32494400       0.25117576       0.74346538       0.21336242       0.81986917       0.26010521       0.26849441       0.56869341      -0.48336017       0.05513199       0.56869341      -0.48336017       0.05513199
H       -1.12910900      -1.07231620       0.40986690      -0.00991432       0.19332835      -0.16073435       1.82221705       4.19999148      -1.42762463       1.83213137       4.00666313      -1.26689028       1.83213137       4.00666313      -1.26689028
H        0.04408530       1.11848730       0.36056370       0.40358157       0.20064235      -0.47661081      -2.53418673      -1.69220829      -0.35138874      -2.93776830      -1.89285064       0.12522207      -2.93776830      -1.89285064       0.12522207
6
Properties=species:S:1:pos:R:3:REF_forces:R:3:x_forces:R:3:cas_forces:R:3:forces:R:3 state=2 data_path=dataset_delta/casscf_2nd_part/CAS_grad_x_points_with_old_xyz.json name=00391-5K_run13_step0 REF_energy=-5.51999472706575 x_energy=-2567.1069018802727 cas_energy=-2561.586907153207 energy=-2561.586907153207 pbc="F F F"
C       -2.47126180       0.34363470       0.18751480       0.36019006      -0.52223054      -0.00520323      -6.70392255      -4.28785786     -12.35593113      -7.06411261      -3.76562732     -12.35072790      -7.06411261      -3.76562732     -12.35072790
N       -1.13996490       0.17238260       0.06844590      -0.82574480      -0.18300927       0.30289017       7.48991754       1.25233904       1.91167042       8.31566234       1.43534831       1.60878025       8.31566234       1.43534831       1.60878025
H       -2.88779350       0.68898330       0.89797210       0.14365613       0.20705884      -0.24474262      -5.78096057       4.63946529      11.32792569      -5.92461670       4.43240645      11.57266831      -5.92461670       4.43240645      11.57266831
H       -3.21741750      -0.27398910      -0.56444760       0.27888184       0.18545634       0.20808047       1.65507775       1.61028933       1.57975702       1.37619591       1.42483299       1.37167655       1.37619591       1.42483299       1.37167655
H       -1.12511990      -0.50717850      -0.66818230       0.03265288       0.21977442      -0.21581450       2.52456412      -1.92059503      -0.11962573       2.49191124      -2.14036945       0.09618877       2.49191124      -2.14036945       0.09618877
H       -0.67970400       0.43847900       1.02708900       0.02719139       0.09253008      -0.04469184       0.83215123      -1.29406090      -2.34327783       0.80495984      -1.38659098      -2.29858599       0.80495984      -1.38659098      -2.29858599
6
Properties=species:S:1:pos:R:3:REF_forces:R:3:x_forces:R:3:cas_forces:R:3:forces:R:3 state=2 data_path=dataset_delta/casscf_2nd_part/CAS_grad_x_points_with_old_xyz.json name=00341-0K_run11_step79 REF_energy=-5.169442659451761 x_energy=-2567.2812259328416 cas_energy=-2562.11178327339 energy=-2562.11178327339 pbc="F F F"
C       -2.93326860       0.36472850       0.26386820      -0.30310220      -0.06097148      -0.08598427      -1.06304927       4.62797858      -0.39618589      -0.75994707       4.68895006      -0.31020162      -0.75994707       4.68895006      -0.31020162
N       -0.79199660       0.00546810       0.04855720       0.08322531       0.16701969       0.29756953       2.73718676       2.13761343      -1.17013762       2.65396145       1.97059374      -1.46770715       2.65396145       1.97059374      -1.46770715
H       -3.07010020       1.58943350       0.06528380       0.03311386      -0.15557631       0.01359709       0.83994707      -2.93971704       0.79535997       0.80683321      -2.78414073       0.78176288       0.80683321      -2.78414073       0.78176288
H       -3.53471210      -0.42315990      -0.24810890       0.04868625       0.15509624       0.02572343       1.06891966      -0.87277008       0.13648687       1.02023341      -1.02786632       0.11076344       1.02023341      -1.02786632       0.11076344
H       -0.61188520       0.94045110      -0.49921140       0.08429234      -0.06579684       0.09045529      -2.29419732      -1.20796231      -1.40475111      -2.37848966      -1.14216547      -1.49520640      -2.37848966      -1.14216547      -1.49520640
H       -0.13138660       0.41865630       0.76897760       0.05392976      -0.06744994      -0.34283832      -1.28866158      -1.77282122       2.03775054      -1.34259134      -1.70537128       2.38058886      -1.34259134      -1.70537128       2.38058886
6
Properties=species:S:1:pos:R:3:REF_forces:R:3:x_forces:R:3:cas_forces:R:3:forces:R:3 state=2 data_path=dataset_delta/casscf_2nd_part/CAS_grad_x_points_with_old_xyz.json name=00418-5K_run18_step119 REF_energy=-5.503471161946891 x_energy=-2566.819449320292 cas_energy=-2561.315978158345 energy=-2561.315978158345 pbc="F F F"
C       -3.35961200       0.38131120       0.16807490       0.66530535       0.28820922       0.08077224       1.29549120      -4.00707512      -1.00481316       0.63018585      -4.29528434      -1.08558540       0.63018585      -4.29528434      -1.08558540
N       -0.39752730       0.01003710       0.07956690      -0.57259299       0.68167202       0.24193821      -0.77398773       3.62820669      -5.90067891      -0.20139474       2.94653467      -6.14261712      -0.20139474       2.94653467      -6.14261712
H       -3.19073850       1.46941870       0.41579910      -0.11778420      -0.04729916      -0.00693048      -0.48880099      -0.67784836      -0.24009621      -0.37101679      -0.63054920      -0.23316573      -0.37101679      -0.63054920      -0.23316573
H       -3.60752220      -0.86156770      -0.17056790      -0.13886147      -0.30600954      -0.08433272       0.64906825       4.51486253       1.14724020       0.78792972       4.82087207       1.23157292       0.78792972       4.82087207       1.23157292
H       -0.36502600       0.99651490      -0.42147610       0.11648825      -0.20608208      -0.26700758       0.47411989      -2.77688737      -1.64436231       0.35763164      -2.57080529      -1.37735473       0.35763164      -2.57080529      -1.37735473
H       -0.57305810       0.33022790       0.92826770       0.04769630      -0.41036406       0.03554641      -1.15563938      -0.68113197       7.64269646      -1.20333568      -0.27076791       7.60715005      -1.20333568      -0.27076791       7.60715005
6
Properties=species:S:1:pos:R:3:REF_forces:R:3:x_forces:R:3:cas_forces:R:3:forces:R:3 state=2 data_path=dataset_delta/casscf_2nd_part/CAS_grad_x_points_with_old_xyz.json name=00580-fromIvanD REF_energy=-5.480557671621227 x_energy=-2567.4802830260437 cas_energy=-2561.9997253544225 energy=-2561.9997253544225 pbc="F F F"
C       -3.66453370       0.58248110       0.32786420       1.63655729      -1.09584548       1.11556590       0.67297509      -4.55158935       4.51057845      -0.96358220      -3.45574387       3.39501255      -0.96358220      -3.45574387       3.39501255
N       -0.19172000      -0.10589910      -0.13513550      -0.71032241      -1.19111024      -1.62245082       0.21008871       2.52746721      -0.28145637       0.92041112       3.71857745       1.34099445       0.92041112       3.71857745       1.34099445
H       -3.06345250       1.20463150      -0.24375550      -0.42238296       1.25429099      -1.24311446       0.65398667       2.31438830      -2.03850207       1.07636963       1.06009731      -0.79538761       1.07636963       1.06009731      -0.79538761
H       -3.57537500      -0.27624130       1.27048400      -1.22424569      -0.17365791       0.17840599      -1.25138043       2.27778695      -2.40187086      -0.02713474       2.45144486      -2.58027685      -0.02713474       2.45144486      -2.58027685
H       -0.16552830       1.05792370      -0.09717260       0.55894772      -0.37456394       1.26374645      -0.05362211      -3.22371397       0.31725729      -0.61256983      -2.84915003      -0.94648916      -0.61256983      -2.84915003      -0.94648916
H        0.17680580      -0.63296580       0.69891850       0.16094186       1.57090413       0.31140639      -0.23255213       0.64567841      -0.10244700      -0.39349399      -0.92522572      -0.41385339      -0.39349399      -0.92522572      -0.41385339
6
Properties=species:S:1:pos:R:3:REF_forces:R:3:x_forces:R:3:cas_forces:R:3:forces:R:3 state=2 data_path=dataset_delta/casscf_2nd_part/CAS_grad_x_points_with_old_xyz.json name=00314-0K_run11_step456 REF_energy=-5.149856110026121 x_energy=-2565.6026216248833 cas_energy=-2560.452765514857 energy=-2560.452765514857 pbc="F F F"
C       -3.19619470       0.10055440       0.30901610      -0.31585196      -0.76897522      -0.65414391       0.63562390       2.62358682       0.84308706       0.95147586       3.39256204       1.49723097       0.95147586       3.39256204       1.49723097
N       -0.67433020       0.34915060       0.01504340       0.04454006       0.92000018       0.58795304       6.94487458      -0.14893126       1.24633880       6.90033452      -1.06893144       0.65838576       6.90033452      -1.06893144       0.65838576
H       -2.77089840       0.97184420       1.16697400       0.43110292       0.44048129       0.26810469      -0.88783377      -2.56903953      -2.45363442      -1.31893669      -3.00952082      -2.72173911      -1.31893669      -3.00952082      -2.72173911
H       -3.82804110       0.30750900      -0.65436370       0.00312325       0.05058659       0.11001611       0.83343508      -0.49034330       1.19932916       0.83031183      -0.54092989       1.08931305       0.83031183      -0.54092989       1.08931305
H       -0.02866530       0.63800410      -0.77500210      -0.10857222      -0.36365559      -0.09457956      -3.06901819       0.85595065      -1.63679612      -2.96044597       1.21960624      -1.54221656      -2.96044597       1.21960624      -1.54221656
H        0.32471680      -0.15104290       0.47521950      -0.05429860      -0.27875750      -0.21733771      -4.45703816      -0.27154364       0.80168818      -4.40273956       0.00721386       1.01902589      -4.40273956       0.00721386       1.01902589
6
Properties=species:S:1:pos:R:3:REF_forces:R:3:x_forces:R:3:cas_forces:R:3:forces:R:3 state=2 data_path=dataset_delta/casscf_2nd_part/CAS_grad_x_points_with_old_xyz.json name=00315-0K_run11_step205 REF_energy=-5.348519192372805 x_energy=-2567.312355319153 cas_energy=-2561.9638361267803 energy=-2561.9638361267803 pbc="F F F"
C       -3.06441090       0.38955000       0.12199730      -0.03227385      -0.21146606      -0.01576956       0.38747931      -1.29775850       1.55009636       0.41975316      -1.08629244       1.56586592       0.41975316      -1.08629244       1.56586592
N       -0.71901050       0.21361400       0.15770040      -0.19591685       0.06110158       0.17697911       3.99567850      -2.30320986      -0.83778369       4.19159535      -2.36431144      -1.01476280       4.19159535      -2.36431144      -1.01476280
H       -3.42747020      -0.12493800      -0.85394640       0.00955306       0.13566850       0.05170301       0.33570701       0.73312986       1.30698640       0.32615395       0.59746136       1.25528339       0.32615395       0.59746136       1.25528339
H       -3.08207340       0.30696920       1.33697760       0.03899695       0.08545429      -0.10181992      -0.18542396       0.24148409      -2.64004333      -0.22442091       0.15602980      -2.53822341      -0.22442091       0.15602980      -2.53822341
H        0.24450250      -0.19318310       0.57175980       0.07359117      -0.02219481      -0.17175734      -2.60570331       1.64553983       1.04505730      -2.67929448       1.66773464       1.21681464      -2.67929448       1.66773464       1.21681464
H       -0.68588650      -0.36139980      -0.72776470       0.10585951      -0.04882113       0.06062773      -1.92792756       0.98055696      -0.42435002      -2.03378707       1.02937809      -0.48497775      -2.03378707       1.02937809      -0.48497775
6
Properties=species:S:1:pos:R:3:REF_forces:R:3:x_forces:R:3:cas_forces:R:3:forces:R:3 state=2 data_path=dataset_delta/casscf_2nd_part/CAS_grad_x_points_with_old_xyz.json name=00409-0K_run13_step58 REF_energy=-5.090903424369571 x_energy=-2567.7651658377235 cas_energy=-2562.674262413354 energy=-2562.674262413354 pbc="F F F"
C       -2.66226260       0.37818650       0.24618990      -0.05212065      -0.24223479      -0.31007683       4.28056014       0.24811389       0.18224325       4.33268079       0.49034868       0.49232008       4.33268079       0.49034868       0.49232008
N       -0.96113970       0.03801330       0.09700810      -0.35023879       0.36252739       0.02016347      -3.03117484       1.38454553      -1.23552371      -2.68093605       1.02201814      -1.25568718      -2.68093605       1.02201814      -1.25568718
H       -3.33415810       1.13595400       0.83662250       0.09145110      -0.09972224       0.03960296       0.26297389      -0.97394264      -1.11428292       0.17152279      -0.87422040      -1.15388588       0.17152279      -0.87422040      -1.15388588
H       -3.64526710      -0.30074840      -0.87539280       0.24842824       0.20751304       0.24506442       0.95124371       0.46004480       0.93592461       0.70281547       0.25253176       0.69086019       0.70281547       0.25253176       0.69086019
H       -0.66754930       0.07087740      -0.96972660       0.05703009      -0.13936579       0.08280804      -0.85939068       0.25746556       2.04878952      -0.91642077       0.39683135       1.96598148      -0.91642077       0.39683135       1.96598148
H       -0.44607180       0.89412960       0.60940360       0.00522529      -0.08884216      -0.07757444      -1.60443694      -1.37635168      -0.81716313      -1.60966223      -1.28750952      -0.73958869      -1.60966223      -1.28750952      -0.73958869
6
Properties=species:S:1:pos:R:3:REF_forces:R:3:x_forces:R:3:cas_forces:R:3:forces:R:3 state=2 data_path=dataset_delta/casscf_2nd_part/CAS_grad_x_points_with_old_xyz.json name=00337-0K_run24_step66 REF_energy=-5.31674133173874 x_energy=-2568.610295146057 cas_energy=-2563.2935538143183 energy=-2563.2935538143183 pbc="F F F"
C       -2.92971250       0.36001860       0.22071150       0.07792048       0.02494761      -0.01214808      -0.54887693      -0.11612347      -2.24484109      -0.62679741      -0.14107108      -2.23269301      -0.62679741      -0.14107108      -2.23269301
N       -0.78269440       0.08335600       0.05568190       0.16302475      -0.48943971       0.27650443      -2.24909837       2.35712338       2.67075300      -2.41212312       2.84656309       2.39424857      -2.41212312       2.84656309       2.39424857
H       -3.14858060       1.07442650       0.99770840      -0.03823856      -0.06585917      -0.13481059      -0.56500361       0.20897563       1.11276572      -0.52676505       0.27483480       1.24757631      -0.52676505       0.27483480       1.24757631
H       -3.58100900      -0.07378470      -0.60365290       0.04084049       0.11125247       0.10814329       0.21204162      -0.07493944       1.13252516       0.17120113      -0.18619191       1.02438187       0.17120113      -0.18619191       1.02438187
H       -0.48378040      -0.24426530      -0.78762590      -0.12236199       0.17959888      -0.20222160       2.08326940      -1.83032364      -2.89623789       2.20563139      -2.00992252      -2.69401629       2.20563139      -2.00992252      -2.69401629
H       -0.35463640       0.65717180       0.77424740      -0.11858613       0.24062200      -0.03620043       1.07026692      -0.54359038       0.22430213       1.18885305      -0.78421238       0.26050256       1.18885305      -0.78421238       0.26050256
6
Properties=species:S:1:pos:R:3:REF_forces:R:3:x_forces:R:3:cas_forces:R:3:forces:R:3 state=2 data_path=dataset_delta/casscf_2nd_part/CAS_grad_x_points_with_old_xyz.json name=00319-0K_run13_step435 REF_energy=-5.230781068303713 x_energy=-2564.170451286291 cas_energy=-2558.9396702179874 energy=-2558.9396702179874 pbc="F F F"
C       -2.47519200       0.35348380       0.28887230      -1.49143325      -0.23162193       0.22130436      -9.67690304       0.12815927      -2.79417521      -8.18546979       0.35978120      -3.01547957      -8.18546979       0.35978120      -3.01547957
N       -1.23397230       0.06954560       0.13300710       1.42913092      -1.15464895      -0.65264637      -6.96984709     -17.00872369      -3.10436721      -8.39897801     -15.85407474      -2.45172084      -8.39897801     -15.85407474      -2.45172084
H       -3.18700190       1.35147300       0.40046550       0.11722549      -0.24379293       0.26657201       1.91480115      -1.67229602       0.03637165       1.79757566      -1.42850309      -0.23020036       1.79757566      -1.42850309      -0.23020036
H       -2.85710320      -0.48411960      -0.48763270       0.50041454       0.78692271      -0.28818470      -1.69110060       0.77705428       1.86813629      -2.19151514      -0.00986843       2.15632099      -2.19151514      -0.00986843       2.15632099
H       -0.77196560      -0.96345060      -0.72054510      -0.47819199       0.76141965       1.25171352       0.41847242      -0.95123738      -1.31614848       0.89666441      -1.71265703      -2.56786200       0.89666441      -1.71265703      -2.56786200
H       -0.77438040       0.68328770       0.28933250      -0.07784201       0.12589989      -0.79906134      16.00388086      18.77122198       5.30988044      16.08172287      18.64532209       6.10894178      16.08172287      18.64532209       6.10894178
6
Properties=species:S:1:pos:R:3:REF_forces:R:3:x_forces:R:3:cas_forces:R:3:forces:R:3 state=2 data_path=dataset_delta/casscf_2nd_part/CAS_grad_x_points_with_old_xyz.json name=00582-fromIvanD REF_energy=-5.655590764636145 x_energy=-2567.084230504778 cas_energy=-2561.428639740142 energy=-2561.428639740142 pbc="F F F"
C       -2.47822900       0.32898160       0.22207140      -0.43782139       0.54125158      -0.22473881      -1.82325372       2.41457828       1.69596467      -1.38543233       1.87332670       1.92070348      -1.38543233       1.87332670       1.92070348
N       -1.21117480       0.14118780       0.08167170       0.59673536      -0.22877848      -0.02517999       6.02212832       0.37707987      -0.62018294       5.42539296       0.60585835      -0.59500295       5.42539296       0.60585835      -0.59500295
H       -2.71517140       1.37232510      -0.29199290       0.06551726      -0.08349688       0.17369343      -1.47061481      -0.45623869       1.04623651      -1.53613207      -0.37274181       0.87254308      -1.53613207      -0.37274181       0.87254308
H       -2.84172630      -0.70976010       0.40265890       0.02103131      -0.28147548       0.03376647      -2.27349439      -1.34566670      -1.72902865      -2.29452570      -1.06419122      -1.76279512      -2.29452570      -1.06419122      -1.76279512
H       -0.85601470       0.36950020      -0.97144480      -0.14545755      -0.04503587       0.04101154       0.54382420      -2.30427219       1.71381460       0.68928175      -2.25923632       1.67280306       0.68928175      -2.25923632       1.67280306
H       -0.44632960       0.03869300       0.97981610      -0.10395992       0.09747146      -0.00072235      -1.00254452       1.31445576      -2.10897391      -0.89858460       1.21698430      -2.10825156      -0.89858460       1.21698430      -2.10825156
6
Properties=species:S:1:pos:R:3:REF_forces:R:3:x_forces:R:3:cas_forces:R:3:forces:R:3 state=2 data_path=dataset_delta/casscf_2nd_part/CAS_grad_x_points_with_old_xyz.json name=00370-0K_run11_step154 REF_energy=-5.144534556326107 x_energy=-2568.1827175728185 cas_energy=-2563.0381830164924 energy=-2563.0381830164924 pbc="F F F"
C       -3.13467850       0.43295370       0.21705910      -0.04554714      -0.04341390      -0.09554008      -1.80870308      -3.27238537       0.48983206      -1.76315594      -3.22897147       0.58537214      -1.76315594      -3.22897147       0.58537214
N       -0.61465830       0.12927820       0.03494040      -0.08139845      -0.01941712       0.16711981      -0.32532880       1.14751474      -0.89272653      -0.24393035       1.16693186      -1.05984634      -0.24393035       1.16693186      -1.05984634
H       -3.20026350       0.66858500      -0.88693720      -0.03566237      -0.03494715       0.09995711       1.12427984       0.80837438       0.59117410       1.15994221       0.84332153       0.49121699       1.15994221       0.84332153       0.49121699
H       -3.51153700      -0.47443240       0.96055150       0.00996528       0.09231840      -0.04629753       1.59069434       2.37232971      -0.84174535       1.58072906       2.28001131      -0.79544782       1.58072906       2.28001131      -0.79544782
H       -0.42920960       0.87721430       0.82151130       0.07513135      -0.03607854      -0.05817706      -0.29456396      -2.30031593      -0.74231076      -0.36969531      -2.26423739      -0.68413370      -0.36969531      -2.26423739      -0.68413370
H       -0.36149230      -0.90669290      -0.02173060       0.07692784       0.04204718      -0.06701784      -0.28696182       1.24499134       1.39582090      -0.36388966       1.20294416       1.46283874      -0.36388966       1.20294416       1.46283874
6
Properties=species:S:1:pos:R:3:REF_forces:R:3:x_forces:R:3:cas_forces:R:3:forces:R:3 state=2 data_path=dataset_delta/casscf_1st_part/cas_main.json REF_energy=-5.045727337268545 x_energy=-2566.3134436534747 cas_energy=-2561.267716316206 energy=-2561.267716316206 pbc="F F F"
C       -2.61020900       0.21910770       0.30388480      -0.80442110       0.41866356      -0.12361144       0.33130785       0.56335980       0.47383774       1.13572895       0.14469624       0.59744918       1.13572895       0.14469624       0.59744918
N       -1.34976720       0.10215610      -0.04283380       2.23833338       0.24218556       0.98455757       2.18217265      -2.75258592      -2.23005570      -0.05616073      -2.99477148      -3.21461327      -0.05616073      -2.99477148      -3.21461327
H       -2.42096220       1.37494140       0.33326670      -0.53804871      -0.31367667      -0.28577730      -0.75612288       0.31020635       0.78125912      -0.21807417       0.62388302       1.06703642      -0.21807417       0.62388302       1.06703642
H       -3.60137050      -0.29821190       0.52387370       0.12130083      -0.09120896       0.08607961       0.87667446       0.26178522      -0.11801519       0.75537363       0.35299418      -0.20409480       0.75537363       0.35299418      -0.20409480
H       -0.17681360      -0.45538980       0.02117480      -1.00654948      -0.26371859      -0.67228108      -2.42500082       1.80290729       1.20067554      -1.41845134       2.06662588       1.87295662      -1.41845134       2.06662588       1.87295662
H        1.36721110       0.55905110       1.02191600      -0.01271063       0.00835165       0.01118875      -0.21112697      -0.18507620      -0.10754540      -0.19841634      -0.19342785      -0.11873415      -0.19841634      -0.19342785      -0.11873415
6
Properties=species:S:1:pos:R:3:REF_forces:R:3:x_forces:R:3:cas_forces:R:3:forces:R:3 state=2 data_path=dataset_delta/casscf_1st_part/cas_main.json REF_energy=-5.1898295043661165 x_energy=-2566.9313383867307 cas_energy=-2561.7415088823645 energy=-2561.7415088823645 pbc="F F F"
C       -2.60429080       0.40724310       0.26757870      -0.05214294      -0.23388425       0.01196195       0.28599324      -2.27357918      -4.01076059       0.33813618      -2.03969493      -4.02272254       0.33813618      -2.03969493      -4.02272254
N       -1.00668450       0.17181620       0.02429530      -0.38793972      -0.27633274      -0.12054923      -0.57367065      -0.56053560       5.61760171      -0.18573093      -0.28420286       5.73815094      -0.18573093      -0.28420286       5.73815094
H       -3.45702790       0.87002140       0.80387690       0.09257501       0.04654485      -0.12389408       0.55452729       0.31144119       0.81623245       0.46195228       0.26489634       0.94012653       0.46195228       0.26489634       0.94012653
H       -3.58510070      -0.67362070      -0.76809750       0.24643596       0.22520446       0.20008284       1.04988691       1.20715781       1.23980578       0.80345095       0.98195335       1.03972294       0.80345095       0.98195335       1.03972294
H       -0.52637140      -0.38222860      -0.68366640       0.10234564       0.18620779       0.09060762      -0.79767700      -0.13536571      -1.34930352      -0.90002264      -0.32157350      -1.43991114      -0.90002264      -0.32157350      -1.43991114
H       -0.64195700      -0.23721050       1.01866800      -0.00116247       0.05204160      -0.05807900      -0.51894831       1.45066320      -2.31344573      -0.51778584       1.39862160      -2.25536673      -0.51778584       1.39862160      -2.25536673
6
Properties=species:S:1:pos:R:3:REF_forces:R:3:x_forces:R:3:cas_forces:R:3:forces:R:3 state=2 data_path=dataset_delta/casscf_1st_part/cas_CN.json REF_energy=-4.051553097624037 x_energy=-2564.8866118482156 cas_energy=-2560.8350587505915 energy=-2560.8350587505915 pbc="F F F"
C       -3.56379780       0.58727300       0.33189810      -0.35856705      -0.25840274       0.14511778       5.24968798      -3.36906323       1.01911389       5.60825503      -3.11066049       0.87399611       5.60825503      -3.11066049       0.87399611
N       -0.29624630      -0.11640820      -0.10205440       0.36218864      -0.03718880      -0.08258718      -2.21585971       3.12657599      -3.12447504      -2.57804835       3.16376479      -3.04188786      -2.57804835       3.16376479      -3.04188786
H       -2.68703420       1.11255440      -0.11494100       0.43335302       0.15966229      -0.05589501      -1.63248665       2.68302744      -1.32957884      -2.06583967       2.52336515      -1.27368383      -2.06583967       2.52336515      -1.27368383
H       -2.95010880      -0.44441270       0.83048020       0.04830583       0.17688427      -0.02854227      -3.45264270       0.49155506       0.19211223      -3.50094853       0.31467079       0.22065450      -3.50094853       0.31467079       0.22065450
H       -0.67423080       1.08986810      -0.40409660      -0.27064669       0.01446696      -0.03317961       1.73724743      -3.79041312       1.82873999       2.00789412      -3.80488008       1.86191960       2.00789412      -3.80488008       1.86191960
H       -0.14291560      -0.31194220       0.87996300      -0.21343336      -0.05528982       0.05508964       0.31525404       0.85845002       1.41409111       0.52868740       0.91373984       1.35900147       0.52868740       0.91373984       1.35900147
6
Properties=species:S:1:pos:R:3:REF_forces:R:3:x_forces:R:3:cas_forces:R:3:forces:R:3 state=2 data_path=dataset_delta/casscf_2nd_part/CAS_grad_x_points_with_old_xyz.json name=00256-0K_run24_step493 REF_energy=-5.486916128083976 x_energy=-2567.691186020848 cas_energy=-2562.204269892764 energy=-2562.204269892764 pbc="F F F"
C       -4.84075010       0.66376220       0.25791560       3.37940455       0.82554759      -1.01038664       3.00486705      -0.16144832      -1.48441536      -0.37453750      -0.98699591      -0.47402872      -0.37453750      -0.98699591      -0.47402872
N        0.42817280       0.79582520      -1.28542720      -0.19270287      -2.71514088       0.18448485      -0.27737881       2.38109717       0.00138917      -0.08467594       5.09623805      -0.18309568      -0.08467594       5.09623805      -0.18309568
H       -4.53310610       1.58911950       0.73386260      -1.76751944       0.61599966       1.23762371      -1.38491618       1.03497086       1.33394735       0.38260326       0.41897120       0.09632364       0.38260326       0.41897120       0.09632364
H       -4.43224980      -0.10588680      -0.44374590      -1.58507060      -1.46728389      -0.22989205      -1.59718761      -0.89937566       0.14759028      -0.01211701       0.56790823       0.37748233      -0.01211701       0.56790823       0.37748233
H        0.09493320       1.40791890      -2.21375260       0.64313875       1.44895750       1.47781081       1.16758241      -1.03189932       2.92259956       0.52444366      -2.48085682       1.44478875       0.52444366      -2.48085682       1.44478875
H        0.73641860       1.49086540      -0.40689910      -0.47820649       1.29310754      -1.65957049      -0.91392296      -1.32215720      -2.92104081      -0.43571647      -2.61526474      -1.26147032      -0.43571647      -2.61526474      -1.26147032
6