6
Properties=species:S:1:pos:R:3:REF_forces:R:3:forces:R:3 REF_energy=-2568.1492406680177 split=train T=5000 traj_n=7 energy=-2568.1492406680177 pbc="F F F"
C       -3.80535420       0.44682220       0.25477890       6.99749144       2.34960172       4.60684360       6.99749144       2.34960172       4.60684360
N        0.01584070       0.08009540      -0.04267230      -0.35231798      -0.63743422       0.23062108      -0.35231798      -0.63743422       0.23062108
H       -3.37494580       0.55020270       1.24270880      -0.10102662      -0.00079205       0.59306577      -0.10102662      -0.00079205       0.59306577
H       -4.50707910       0.20073920      -0.32581550      -6.60677583      -2.38344947      -5.17705184      -6.60677583      -2.38344947      -5.17705184
H       -0.09681770      -0.85695280      -0.53826620      -0.01902827       0.85299527       0.47479491      -0.01902827       0.85299527       0.47479491
H       -0.21373020       0.26288150       0.97492190       0.08175276      -0.18062680      -0.72749971       0.08175276      -0.18062680      -0.72749971
6
Properties=species:S:1:pos:R:3:REF_forces:R:3:forces:R:3 REF_energy=-2571.4819747129914 split=train T=0 traj_n=80_old energy=-2571.4819747129914 pbc="F F F"
C       -1.98000280       0.78519970      -0.71336810      -1.19719314       0.33957884      -2.09082521      -1.19719314       0.33957884      -2.09082521
N       -1.48800400       0.19523500       0.20412020      -0.66691691      -0.93343542      -1.00009287      -0.66691691      -0.93343542      -1.00009287
H       -3.28112470      -2.36093430       5.05815710      -3.62795338       3.36054362      -4.18406437      -3.62795338       3.36054362      -4.18406437
H       -2.92329640      -2.69305900       5.47196690       3.62801164      -3.35900445       4.18152155       3.62801164      -3.35900445       4.18152155
H       -0.88834470       0.07369920       0.97343030       1.49830431      -0.76949066       2.09659086       1.49830431      -0.76949066       2.09659086
H       -1.90468300      -0.64459180      -0.83927490       0.36570901       1.36172581       0.99637752       0.36570901       1.36172581       0.99637752
6
Properties=species:S:1:pos:R:3:REF_forces:R:3:forces:R:3 REF_energy=-2569.0490153842597 split=train T=5000 traj_n=82 energy=-2569.0490153842597 pbc="F F F"
C       -2.53699260       0.27211700       0.16729790       3.12185349      -0.17425843      -0.98236897       3.12185349      -0.17425843      -0.98236897
N       -1.17004960       0.24419330      -0.00162550      -5.11606301      -0.52795515       2.39237316      -5.11606301      -0.52795515       2.39237316
H       -2.93820620      -0.10703150       1.88826160       0.42795321       0.88561886      -2.39206812       0.42795321       0.88561886      -2.39206812
H       -3.33375960       0.15807580      -0.72478630       1.31817713      -0.31730424       2.14353576       1.31817713      -0.31730424       2.14353576
H       -0.86629760      -1.54234820       0.29799660       0.39713818       1.16720477      -0.70566698       0.39713818       1.16720477      -0.70566698
H       -0.51249380       0.83594660       0.58529860      -0.14797080      -1.03670492      -0.45989238      -0.14797080      -1.03670492      -0.45989238
6
Properties=species:S:1:pos:R:3:REF_forces:R:3:forces:R:3 REF_energy=-2568.2128021256362 split=train T=5000 traj_n=40 energy=-2568.2128021256362 pbc="F F F"
C       -3.47484170       0.03414460       0.36676200       1.55300448      -0.67721181      -1.82319356       1.55300448      -0.67721181      -1.82319356
N       -0.32451620       0.31082440      -0.10423910      -0.62977372       2.27960127       1.68352053      -0.62977372       2.27960127       1.68352053
H       -2.94844610      -0.88016400      -0.30407890      -1.96475871       2.37943346       2.07289006      -1.96475871       2.37943346       2.07289006
H       -4.15759830       0.88960870       0.81745850       0.93420105      -1.62294194      -0.51595190       0.93420105      -1.62294194      -0.51595190
H       -0.68285850      -0.66292380      -0.04877090       0.37103114      -0.06860331       0.92283857       0.37103114      -0.06860331       0.92283857
H       -0.23626500       0.90515960       0.88165370      -0.26367097      -2.29031629      -2.33978617      -0.26367097      -2.29031629      -2.33978617
6
Properties=species:S:1:pos:R:3:REF_forces:R:3:forces:R:3 REF_energy=-2571.5285075665197 split=train T=0 traj_n=47_old energy=-2571.5285075665197 pbc="F F F"
C       -2.68438160       0.25676420      -0.06503860       2.02436368      -0.99436049       0.32880221       2.02436368      -0.99436049       0.32880221
N       -0.97787640       0.15543000       0.30253980      -4.05939358      -2.28540785       0.63888555      -4.05939358      -2.28540785       0.63888555
H       -2.89228100       1.40082160      -0.10474970       0.68507671      -1.60320373      -0.29848201       0.68507671      -1.60320373      -0.29848201
H       -3.83013310      -0.60454540      -0.42685460       4.01848897       1.89010097       1.59920150       4.01848897       1.89010097       1.59920150
H       -0.66560990       0.95076150      -0.12564530       0.63027621       3.98141839      -1.53664378       0.63027621       3.98141839      -1.53664378
H        0.00504030      -0.19021150       0.76507380      -3.29809599      -0.98882753      -0.73262855      -3.29809599      -0.98882753      -0.73262855
6
Properties=species:S:1:pos:R:3:REF_forces:R:3:forces:R:3 REF_energy=-2569.1366706403314 split=train T=5000 traj_n=86 energy=-2569.1366706403314 pbc="F F F"
C       -3.38003920       0.31704950       0.33331260       1.47168377       0.09008123      -1.44152324       1.47168377       0.09008123      -1.44152324
N       -0.31197470      -0.11221780      -0.12178930      -0.18190093      -1.62350943       2.24751899      -0.18190093      -1.62350943       2.24751899
H       -3.74768710      -0.49471940       0.88118630      -1.47101827      -1.30253757       2.46458270      -1.47101827      -1.30253757       2.46458270
H       -2.86384650      -0.01440460      -0.57061100       0.57532546       1.01733834      -1.13633605       0.57532546       1.01733834      -1.13633605
H        0.64841290      -0.18419260       0.30286060      -0.55080274      -0.93915957       0.43814342      -0.55080274      -0.93915957       0.43814342
H       -0.05512470       0.64348890      -0.67573290       0.15667455       2.75776962      -2.57232406       0.15667455       2.75776962      -2.57232406
6
Properties=species:S:1:pos:R:3:REF_forces:R:3:forces:R:3 REF_energy=-2569.325780450662 split=train T=5000 traj_n=63 energy=-2569.325780450662 pbc="F F F"
C       -2.84680570       0.66732330       0.37757770       4.96290789      -5.81412230       1.99758142       4.96290789      -5.81412230       1.99758142
N       -1.77868120      -0.37851520       0.55991450      -4.59260544       5.21546346       0.97112240      -4.59260544       5.21546346       0.97112240
H       -2.84599740       0.06558600      -0.58951990      -2.33029968       2.01544503      -1.03265044      -2.33029968       2.01544503      -1.03265044
H       -3.40193900       1.23007260       1.30759550       1.21588496      -1.14117235      -2.26343227       1.21588496      -1.14117235      -2.26343227
H       12.90189640       4.37044140      -9.98431980      -0.00152765      -0.00007055      -0.00037044      -0.00152765      -0.00007055      -0.00037044
H       -0.98059530      -0.94537110       0.84932490       0.74259744      -0.27613069       0.32290348       0.74259744      -0.27613069       0.32290348
6
Properties=species:S:1:pos:R:3:REF_forces:R:3:forces:R:3 REF_energy=-2569.5150955317968 split=train T=5000 traj_n=60 energy=-2569.5150955317968 pbc="F F F"
C       -2.19917070       0.68447000       0.10615750     -15.46793215      11.28219955      -0.72489570     -15.46793215      11.28219955      -0.72489570
N       -1.30046390       0.05573310       0.11371040      18.60958607      -9.58961408      -0.48850403      18.60958607      -9.58961408      -0.48850403
H       -4.09817120      -1.55668660       0.24186340       1.49317866       3.00556300       2.63031864       1.49317866       3.00556300       2.63031864
H       -3.73049550      -0.79364120       0.89997850      -1.65686677      -3.13795873      -2.50721905      -1.65686677      -3.13795873      -2.50721905
H       -0.51360580       0.93686090      -0.69616170      -2.36804049      -2.34149251       2.21321729      -2.36804049      -2.34149251       2.21321729
H       -0.79010230      -0.67438230       0.71970290      -0.61001155       0.78144305      -1.12291936      -0.61001155       0.78144305      -1.12291936
6
Properties=species:S:1:pos:R:3:REF_forces:R:3:forces:R:3 REF_energy=-2568.210670927461 split=train T=5000 traj_n=94 energy=-2568.210670927461 pbc="F F F"
C       -3.80859380       0.47662010       0.06368150       0.92974183      -3.67376494       0.74289481       0.92974183      -3.67376494       0.74289481
N       -0.02693580       0.05179510       0.22057880      -1.38434103       0.66521267       4.19926880      -1.38434103       0.66521267       4.19926880
H       -4.03981710       1.47627320       0.02170020      -0.57830486       3.36472634      -0.41261355      -0.57830486       3.36472634      -0.41261355
H       -3.64709620      -0.59078630      -0.15130490       0.06731061       0.31354796      -0.19670884       0.06731061       0.31354796      -0.19670884
H       -0.19215340       0.13260890      -0.74367580       0.95200054      -1.05355166      -2.25638688       0.95200054      -1.05355166      -2.25638688
H        0.40409290      -0.62343780       0.91785170       0.01363780       0.38396050      -2.07655533       0.01363780       0.38396050      -2.07655533
6
Properties=species:S:1:pos:R:3:REF_forces:R:3:forces:R:3 REF_energy=-2575.809372887294 split=train T=5000 traj_n=48 energy=-2575.809372887294 pbc="F F F"
C       -2.52532440       0.32489260       0.23802860       2.72500338       0.85596875      -2.47279876       2.72500338       0.85596875      -2.47279876
N       -1.13985540       0.09472870       0.08488720      -2.26352648       2.84780180      -0.40041320      -2.26352648       2.84780180      -0.40041320
H       -3.22953250       1.20104390       0.79925720       2.50714623      -2.63776595      -0.36576521       2.50714623      -2.63776595      -0.36576521
H       -2.98605880      -0.17952180      -0.64759040      -0.51456026       0.11968378       0.79231789      -0.51456026       0.11968378       0.79231789
H       -0.62496620      -0.01864580      -0.86722510      -1.98086894      -1.24330927       1.18235890      -1.98086894      -1.24330927       1.18235890
H       -0.42706080       0.64545950       0.57794670      -0.47319157       0.05738898       1.26445799      -0.47319157       0.05738898       1.26445799
6
Properties=species:S:1:pos:R:3:REF_forces:R:3:forces:R:3 REF_energy=-2570.823603191952 split=train T=0 traj_n=49_old energy=-2570.823603191952 pbc="F F F"
C       -2.88762680       0.35456960       0.22789170       2.70614737       1.33627404      -2.15085754       2.70614737       1.33627404      -2.15085754
N       -0.78983080       0.05877610       0.14133630      -2.75851247       2.03212214      -1.05078757      -2.75851247       2.03212214      -1.05078757
H       -3.54854380       0.58482480       1.14642150       0.81763246      -0.69767193      -0.88682044       0.81763246      -0.69767193      -0.88682044
H       -2.99381600       0.85646650      -0.86676970      -0.45950404      -0.97834422       2.41201140      -0.45950404      -0.97834422       2.41201140
H       -0.58999480      -0.53363920      -0.70654510      -0.33537380      -0.76922085       0.50000180      -0.33537380      -0.76922085       0.50000180
H       -0.75312820       0.98173170      -0.46295190       0.02958718      -0.92320737       1.17646475       0.02958718      -0.92320737       1.17646475
6
Properties=species:S:1:pos:R:3:REF_forces:R:3:forces:R:3 REF_energy=-2568.47494485748 split=train T=5000 traj_n=33 energy=-2568.47494485748 pbc="F F F"
C       -3.39196850       0.48086820       0.11735370       5.82815919      -5.95226789       2.07024342       5.82815919      -5.95226789       2.07024342
N       -0.46746170      -0.04656840       0.21036440      -2.90672572      -0.83673550      -7.72707452      -2.90672572      -0.83673550      -7.72707452
H       -2.81361080      -0.66776500       0.17297120      -1.60163824       3.16391139      -0.19182750      -1.60163824       3.16391139      -0.19182750
H       -4.14379290       1.04471680      -0.23363450      -3.70892314       2.63660766      -1.83674589      -3.70892314       2.63660766      -1.83674589
H        0.02429910       0.33225590       0.87934080       3.90522996       2.61100590       6.41853131       3.90522996       2.61100590       6.41853131
H        0.09610410       0.50736660      -0.60827940      -1.51618016      -1.62262641       1.26678098      -1.51618016      -1.62262641       1.26678098
6
Properties=species:S:1:pos:R:3:REF_forces:R:3:forces:R:3 REF_energy=-2566.107172894356 split=train T=5000 traj_n=49 energy=-2566.107172894356 pbc="F F F"
C       -2.71796270       0.23797620       0.70352090       4.23843781       1.23097610      -2.10414203       4.23843781       1.23097610      -2.10414203
N       -0.92501250       0.25843240       0.05905730      -4.60356611      -0.24140773      -3.41435090      -4.60356611      -0.24140773      -3.41435090
H       -2.87192690       1.25035870       0.11301140      -0.38349390      -0.97227081       0.78240094      -0.38349390      -0.97227081       0.78240094
H       -3.88223970      -0.87396930      -4.63518310       0.00330161       0.00170243       0.00549774       0.00330161       0.00170243       0.00549774
H       -1.09910270       0.18762420      -1.42418670       0.83144834       0.13867817       4.68944909       0.83144834       0.13867817       4.68944909
H       -0.04860060      -0.16822260       0.42136670      -0.09572603      -0.15621808       0.03151689      -0.09572603      -0.15621808       0.03151689
6
Properties=species:S:1:pos:R:3:REF_forces:R:3:forces:R:3 REF_energy=-2566.592471321726 split=train T=5000 traj_n=90 energy=-2566.592471321726 pbc="F F F"
C       -2.37235970      -0.12202740      -0.02932420       2.60673386       1.32684601      -1.24158524       2.60673386       1.32684601      -1.24158524
N       -1.00714480       0.18792980       0.17883220      -6.56802375      -1.79276254      -3.86172170      -6.56802375      -1.79276254      -3.86172170
H       -3.71476830       7.83756270       5.16484720       0.00003841      -0.00015668      -0.00011920       0.00003841      -0.00015668      -0.00011920
H       -3.34665900      -0.29742490      -1.05623620       2.84843948       0.01453506       2.98828051       2.84843948       0.01453506       2.98828051
H       -1.21786100       1.22019450      -0.12838770       0.81492319      -0.24696708       0.56034339       0.81492319      -0.24696708       0.56034339
H       -0.61055520      -0.37284830      -1.45454050       0.29770230       0.69848311       1.55483747       0.29770230       0.69848311       1.55483747
6
Properties=species:S:1:pos:R:3:REF_forces:R:3:forces:R:3 REF_energy=-2575.738455905661 split=train T=0 traj_n=71_old energy=-2575.738455905661 pbc="F F F"
C       -2.53394710       0.36457110       0.18298500       2.03289969      -3.30517810      -0.56834199       2.03289969      -3.30517810      -0.56834199
N       -1.13613410       0.12727100       0.07016270      -2.23792873       1.55958414       1.19872778      -2.23792873       1.55958414       1.19872778
H       -2.93916480       0.79262770       1.28945430       1.10012267      -0.65115836      -3.26066844       1.10012267      -0.65115836      -3.26066844
H       -3.30884480      -0.29118250      -0.71227610       2.39170616       2.34151241       2.87542912       2.39170616       2.34151241       2.87542912
H       -0.50028330      -0.42579680      -0.60953780      -2.06907830       0.80802831       0.40707061      -2.06907830       0.80802831       0.40707061
H       -0.49350850       0.64133610       0.75878880      -1.21884404      -0.75549306      -0.65229679      -1.21884404      -0.75549306      -0.65229679
6
Properties=species:S:1:pos:R:3:REF_forces:R:3:forces:R:3 REF_energy=-2572.216616087574 split=train T=5000 traj_n=34 energy=-2572.216616087574 pbc="F F F"
C       -2.45370200       0.31752010       0.24795720      -1.36293196      -1.03117844      -6.21460420      -1.36293196      -1.03117844      -6.21460420
N       -1.14483010       0.12731630       0.03533090      -2.18146370       0.97051999       2.74241535      -2.18146370       0.97051999       2.74241535
H       -3.10252890       0.54474500       1.08599210       0.61861971       1.18011752       1.12290898       0.61861971       1.18011752       1.12290898
H       -3.02923140       0.34224110      -0.84684410       0.47055243      -1.26753796       2.69512083       0.47055243      -1.26753796       2.69512083
H       -1.01117580      -0.90813190      -0.65717390       0.89472335       4.37123761       1.71315846       0.89472335       4.37123761       1.71315846
H       -0.90775060       1.30447950       0.85073170       1.56060477      -4.22313460      -2.05897201       1.56060477      -4.22313460      -2.05897201
6
Properties=species:S:1:pos:R:3:REF_forces:R:3:forces:R:3 REF_energy=-2567.595880636092 split=train T=5000 traj_n=7 energy=-2567.595880636092 pbc="F F F"
C       -3.46475050       0.47403660       0.23118900      -3.12620164      -3.02974335       0.49667947      -3.12620164      -3.02974335       0.49667947
N       -0.23367280       0.13484420      -0.04671900      -1.06967752      -0.97508488       2.45362609      -1.06967752      -0.97508488       2.45362609
H       -3.53160020       0.43970170       1.43804460       0.46762744       0.52485249      -2.04462047       0.46762744       0.52485249      -2.04462047
H       -4.54208960      -0.32260150      -0.46745720       3.15245286       2.46535603       1.50831279       3.15245286       2.46535603       1.50831279
H       -0.36317370      -0.87170580      -0.30974120       0.18948852      -0.00252297      -0.74219259       0.18948852      -0.00252297      -0.74219259
H       -0.31406190      -0.10850340       1.04319890       0.38620831       1.01712869      -1.67180159       0.38620831       1.01712869      -1.67180159
6
Properties=species:S:1:pos:R:3:REF_forces:R:3:forces:R:3 REF_energy=-2568.7995076845127 split=train T=0 traj_n=64_old energy=-2568.7995076845127 pbc="F F F"
C       -3.43157140       0.31391630       0.26892960      -1.20721772       2.58984480       1.91423725      -1.20721772       2.58984480       1.91423725
N       -0.27574450       0.08311570      -0.01470990      -0.56033721      -2.45429258      -2.97553143      -0.56033721      -2.45429258      -2.97553143
H       -3.60576600       0.98092630       1.25657880       1.10596993      -1.87399671      -1.36960295       1.10596993      -1.87399671      -1.36960295
H       -3.99991100       0.73284420      -0.59678180       0.70847319      -0.84250228      -0.57730691       0.70847319      -0.84250228      -0.57730691
H       -0.49283930      -0.63742040      -0.81826710       0.27566059       1.47155393       1.62677484       0.27566059       1.47155393       1.62677484
H       -0.37477730       0.70246530       0.76127670      -0.32126867       1.10968265       1.38114062      -0.32126867       1.10968265       1.38114062
6
Properties=species:S:1:pos:R:3:REF_forces:R:3:forces:R:3 REF_energy=-2570.1674332017587 split=train T=5000 traj_n=63 energy=-2570.1674332017587 pbc="F F F"
C       -2.66303130       0.46238950       0.23551680       3.59471385      -2.89927971      -0.67123883       3.59471385      -2.89927971      -0.67123883
N       -1.33788460      -0.13885730       0.30960620      -9.42745233       1.26192735       0.71927861      -9.42745233       1.26192735       0.71927861
H       -2.73474920       1.62753460       0.44612900       0.21702668      -1.98972279       0.27126277       0.21702668      -1.98972279       0.27126277
H       -3.53464500      -0.20179530      -0.08887440       0.74576673       0.87319349       0.35150824       0.74576673       0.87319349       0.35150824
H        4.23909790       1.38285120      -3.86220400      -0.00069116      -0.00019381       0.00060364      -0.00069116      -0.00019381       0.00060364
H       -0.78013760       0.62941650       0.28873290       4.87109646       2.75392413      -0.67137890       4.87109646       2.75392413      -0.67137890
6
Properties=species:S:1:pos:R:3:REF_forces:R:3:forces:R:3 REF_energy=-2570.1292487679107 split=train T=5000 traj_n=47 energy=-2570.1292487679107 pbc="F F F"
C       -1.65209900       0.38008010       0.27972450      -5.42018741      -1.14673282       2.39218763      -5.42018741      -1.14673282       2.39218763
N       -0.81517090       0.76642630      -0.37816260       5.28863238       1.36522683      -2.66160388       5.28863238       1.36522683      -2.66160388
H       -2.46797590       0.92169100      -0.35314780      -1.82419850      -1.18407151       1.92798972      -1.82419850      -1.18407151       1.92798972
H      -10.14223080      -5.30595360       3.44103140       3.29806514      -1.04073152       2.68633933       3.29806514      -1.04073152       2.68633933
H       -0.80497970       1.33712240      -1.19354410       1.95538498       0.96533767      -1.65858617       1.95538498       0.96533767      -1.65858617
H       -9.22777870      -5.59473220       4.18619740      -3.29766286       1.04095866      -2.68644223      -3.29766286       1.04095866      -2.68644223
6
Properties=species:S:1:pos:R:3:REF_forces:R:3:forces:R:3 REF_energy=-2569.1848517601934 split=train T=0 traj_n=39_old energy=-2569.1848517601934 pbc="F F F"
C       -3.18552040       0.15632140       0.23831020      -0.13367547       3.47553447      -4.35726392      -0.13367547       3.47553447      -4.35726392
N       -0.64033650       0.14420690       0.13920050      -3.24169138       1.30074284      -1.30669592      -3.24169138       1.30074284      -1.30669592
H       -2.78082480       0.07522290       1.19284750       0.48981427      -0.46330444       2.88006621       0.48981427      -0.46330444       2.88006621
H       -3.50519450       1.26896350      -0.46748980       0.94591643      -3.51787164       2.06266098       0.94591643      -3.51787164       2.06266098
H       -0.99909680       1.06005000      -0.31993900       2.11599317      -1.25503016       0.50575105       2.11599317      -1.25503016       0.50575105
H        0.19844110      -0.38729890      -0.18595670      -0.17628575       0.45991573       0.21530913      -0.17628575       0.45991573       0.21530913
6
Properties=species:S:1:pos:R:3:REF_forces:R:3:forces:R:3 REF_energy=-2570.004456033429 split=train T=5000 traj_n=49 energy=-2570.004456033429 pbc="F F F"
C       -2.16941830       0.59761200       0.79787790      -4.48793521      -5.05576796       4.30165054      -4.48793521      -5.05576796       4.30165054
N       -1.28717520       0.08160720       0.10752530       5.67864485       3.63639195      -2.31237729       5.67864485       3.63639195      -2.31237729
H       -2.70528000      -0.36365300       1.48831290      -0.13192002       3.09696171      -1.09494236      -0.13192002       3.09696171      -1.09494236
H       -4.90892580      -1.81341720      -9.32178660       0.00005852       0.00002962       0.00015360       0.00005852       0.00002962       0.00015360
H       -0.73469350       1.08183100       0.17146070       0.33487793      -1.98833630      -1.61480167       0.33487793      -1.98833630      -1.61480167
H       -0.67345880      -0.69518860      -0.29889560      -1.39377086       0.31079245       0.72033986      -1.39377086       0.31079245       0.72033986
6
Properties=species:S:1:pos:R:3:REF_forces:R:3:forces:R:3 REF_energy=-2573.410703067461 split=train T=0 traj_n=73_old energy=-2573.410703067461 pbc="F F F"
C       -2.73959980       0.37369800       0.23700200       9.43032096      -3.31997690      -3.40008955       9.43032096      -3.31997690      -3.40008955
N       -0.96137230       0.11631180       0.04362290      -4.79006119       1.53901105       2.32344126      -4.79006119       1.53901105       2.32344126
H       -3.30576560       0.93122020       0.85026090      -1.26652819       2.85727461       3.63370324      -1.26652819       2.85727461       3.63370324
H       -3.11719630      -0.20134310      -0.53598610      -0.96337782      -1.29615326      -2.10907876      -0.96337782      -1.29615326      -2.10907876
H       -0.39786380      -0.32061940      -0.73062340      -1.50490618      -0.02978541       0.01169132      -1.50490618      -0.02978541       0.01169132
H       -0.33330350       0.35848640       0.85354860      -0.90572592       0.24956826      -0.45963774      -0.90572592       0.24956826      -0.45963774
6
Properties=species:S:1:pos:R:3:REF_forces:R:3:forces:R:3 REF_energy=-2575.1798357728953 split=train T=0 traj_n=57_old energy=-2575.1798357728953 pbc="F F F"
C       -2.60365950       0.27340950       0.20778820       4.72570406       1.49887052      -3.26452803       4.72570406       1.49887052      -3.26452803
N       -1.07450860       0.15643160       0.06880350      -6.21425607       0.01759838       0.35353946      -6.21425607       0.01759838       0.35353946
H       -2.85112570       0.94286330       1.06187620      -0.02439890      -0.27609613      -0.26348662      -0.02439890      -0.27609613      -0.26348662
H       -3.37911030       0.30689910      -0.83657390       2.35030188      -1.26234911       3.04884999       2.35030188      -1.26234911       3.04884999
H       -0.56459460      -0.59572760      -0.41033990      -0.54071651       0.05309981      -0.80597935      -0.54071651       0.05309981      -0.80597935
H       -0.45509830       0.75592760       0.61865230      -0.29741917      -0.03111853       0.93174904      -0.29741917      -0.03111853       0.93174904
6
Properties=species:S:1:pos:R:3:REF_forces:R:3:forces:R:3 REF_energy=-2568.8887378410477 split=train T=5000 traj_n=91 energy=-2568.8887378410477 pbc="F F F"
C       -4.92812490       0.55016980       0.11488610      -1.61898912      -0.53825653      -0.34338808      -1.61898912      -0.53825653      -0.34338808
N        0.91227560      -0.51374840       0.09518890      -0.84691815      -0.81551526      -0.87229237      -0.84691815      -0.81551526      -0.87229237
H       -3.92775600       0.85167070       0.44688280       0.45598775       0.16081202      -0.09618400       0.45598775       0.16081202      -0.09618400
H       -5.90070940       0.29406140      -0.44576910       1.18890560       0.34730762       0.43373521       1.18890560       0.34730762       0.43373521
H        1.27810640       0.08192410      -0.68105180       0.24147705       0.15588939       0.91219615       0.24147705       0.15588939       0.91219615
H        1.12811480      -0.16700750       1.03458700       0.57965849       0.68990586      -0.03412302       0.57965849       0.68990586      -0.03412302
6
Properties=species:S:1:pos:R:3:REF_forces:R:3:forces:R:3 REF_energy=-2569.731181066745 split=train T=5000 traj_n=44 energy=-2569.731181066745 pbc="F F F"
C       -2.77372230       0.40249880       0.32055120       6.41454394       2.85111559      -4.02130073       6.41454394       2.85111559      -4.02130073
N       -0.89043110       0.05174230      -0.08160380      -5.30014095       4.13673653       5.60356935      -5.30014095       4.13673653       5.60356935
H       -2.97816880       0.95157370      -0.58574580      -0.88781500       1.66647447       0.04956738      -0.88781500       1.66647447       0.04956738
H       -3.02424620      -0.53972730       0.42836550      -2.35721805      -5.45315451       1.88779592      -2.35721805      -5.45315451       1.88779592
H       -0.66058330       1.32047420      -0.04267910      -0.20669583      -4.47192300      -0.34967710      -0.20669583      -4.47192300      -0.34967710
H       -1.20021950      -0.46904470       0.99915240       2.33744827       1.27078182      -3.16991929       2.33744827       1.27078182      -3.16991929
6
Properties=species:S:1:pos:R:3:REF_forces:R:3:forces:R:3 REF_energy=-2573.619849772553 split=train T=5000 traj_n=47 energy=-2573.619849772553 pbc="F F F"
C       -1.86567620       0.40300070       0.20897230      -8.25645354       1.18088525       6.50963923      -8.25645354       1.18088525       6.50963923
N       -0.91510510       0.68358390      -0.32844900       7.92483592      -2.13126553      -5.49932062       7.92483592      -2.13126553      -5.49932062
H       -2.76487560       0.70599810       1.04373380       2.24424994      -1.44174502      -2.55748540       2.24424994      -1.44174502      -2.55748540
H       -7.76845990      -3.80470610       3.00643460      -0.74091552      -3.42775113       0.15264317      -0.74091552      -3.42775113       0.15264317
H       -0.11541130       0.11403320      -0.92301980      -1.91257149       2.39133068       1.54711234      -1.91257149       2.39133068       1.54711234
H       -7.96429960      -4.71717590       3.04639170       0.74089192       3.42850457      -0.15259138       0.74089192       3.42850457      -0.15259138
6
Properties=species:S:1:pos:R:3:REF_forces:R:3:forces:R:3 REF_energy=-2567.9139743513965 split=train T=0 traj_n=3_old energy=-2567.9139743513965 pbc="F F F"
C       -2.55908630       0.40336450       0.31326060       7.54667732      -1.21010615       2.30489152       7.54667732      -1.21010615       2.30489152
N       -1.19773600       0.43201070       0.32930530      -9.68601292      -0.22637737      -1.03615722      -9.68601292      -0.22637737      -1.03615722