6
Properties=species:S:1:pos:R:3:REF_forces:R:3:forces:R:3 REF_energy=-2569.4170584047324 split=val T=0 traj_n=6_old energy=-2569.4170584047324 pbc="F F F"
C       -2.63016660       0.39398070       0.17887300      -1.99180970       0.83475509       1.40762705      -1.99180970       0.83475509       1.40762705
N       -0.99816520       0.01914690       0.03139530      -5.25187193     -10.62903594      -4.38350902      -5.25187193     -10.62903594      -4.38350902
H       -3.48029730       0.38241990      -0.66208210       2.22589961       0.53824989       0.95517246       2.22589961       0.53824989       0.95517246
H       -3.05993080       1.01394130       1.36461100       1.30366839      -2.72898160      -2.79350297       1.30366839      -2.72898160      -2.79350297
H       -0.91658230       0.78976490       0.47069060       3.68220063       8.58181201       4.25493457       3.68220063       8.58181201       4.25493457
H       -0.84142780      -1.08537220       0.28878050       0.03164673       3.40356795       0.55922562       0.03164673       3.40356795       0.55922562
6
Properties=species:S:1:pos:R:3:REF_forces:R:3:forces:R:3 REF_energy=-2569.70843643488 split=val T=0 traj_n=85_old energy=-2569.70843643488 pbc="F F F"
C       -2.97300400       0.40002850       0.23629930       2.06518149       3.30601484      -1.11292101       2.06518149       3.30601484      -1.11292101
N       -0.77583020      -0.00789620       0.03486690       1.45189049       4.12401929       1.74076810       1.45189049       4.12401929       1.74076810
H       -3.36603250       1.49635260       0.32837440       1.00608981      -1.60371050       1.05718242       1.00608981      -1.60371050       1.05718242
H       -3.30541280      -0.50592680      -0.16324740      -0.64061272      -2.29991345      -0.31968744      -0.64061272      -2.29991345      -0.31968744
H       -0.41378160       0.84788140      -0.61155790      -1.21395807      -2.36100811       0.36821491      -1.21395807      -2.36100811       0.36821491
H       -0.00601040       0.24700070       0.89996340      -2.66868778      -1.16552789      -1.73360624      -2.66868778      -1.16552789      -1.73360624
6
Properties=species:S:1:pos:R:3:REF_forces:R:3:forces:R:3 REF_energy=-2567.171506486674 split=val T=5000 traj_n=35 energy=-2567.171506486674 pbc="F F F"
C       -2.12106280      -0.33337060       0.70133430      -3.53290118      -2.54079925       4.86302736      -3.53290118      -2.54079925       4.86302736
N       -1.23500130       0.31792640       0.06998810       3.10934862       0.95782769      -3.08531729       3.10934862       0.95782769      -3.08531729
H       -4.21698520       2.93070370      -2.37507630      -0.21983510       0.48258067       0.10202801      -0.21983510       0.48258067       0.10202801
H       -4.52408910       3.62840620      -2.20599040       0.22468193      -0.49012455      -0.10002096       0.22468193      -0.49012455      -0.10002096
H       -1.54569000       0.06854630      -0.85343840      -0.32896460       1.29357367      -3.14930305      -0.32896460       1.29357367      -3.14930305
H       -0.23225520       0.00500560       0.02741830       0.74741836       0.29506409       1.36898594       0.74741836       0.29506409       1.36898594
6
Properties=species:S:1:pos:R:3:REF_forces:R:3:forces:R:3 REF_energy=-2566.665375599154 split=val T=5000 traj_n=35 energy=-2566.665375599154 pbc="F F F"
C       -1.84681650      -0.57318800       0.82553040      -0.47814022      -2.70937015       3.18036275      -0.47814022      -2.70937015       3.18036275
N       -1.33621620       0.30376180       0.06316570      -2.25630512       0.18343321      -1.84286533      -2.25630512       0.18343321      -1.84286533
H       -5.02335880       4.24913270      -3.00678200       0.21016055       0.24070233      -0.32779115       0.21016055       0.24070233      -0.32779115
H       -4.65515750       4.65167920      -3.56232470      -0.20957418      -0.24304187       0.32990516      -0.20957418      -0.24304187       0.32990516
H       -2.29712600       0.24185820      -0.56917170       3.07636846       1.92937349      -0.27442142       3.07636846       1.92937349      -0.27442142
H       -0.35552810       0.62686210       0.34368750      -0.34239461       0.59915455      -1.06540800      -0.34239461       0.59915455      -1.06540800
6
Properties=species:S:1:pos:R:3:REF_forces:R:3:forces:R:3 REF_energy=-2566.8896022389954 split=val T=5000 traj_n=8 energy=-2566.8896022389954 pbc="F F F"
C       -3.06962260       0.46201490       0.30602690       3.23302569       4.97134872      11.26806146       3.23302569       4.97134872      11.26806146
N       -0.56504970       0.10559900      -0.12534960      -3.58368274      -1.00496280       2.53933964      -3.58368274      -1.00496280       2.53933964
H       -3.28487810       0.74911550       1.40621100       0.83159705       0.31559024      -1.86326045       0.83159705       0.31559024      -1.86326045
H       -3.38090250      -0.03750770      -0.40006020      -3.02350899      -5.20781186      -9.56182950      -3.02350899      -5.20781186      -9.56182950
H       -0.92464170      -0.88664750       0.08778120       1.54963999      -1.04489368      -1.59404438       1.54963999      -1.04489368      -1.59404438
H       -1.18098690       0.03918560       0.88070770       0.99468893       1.97121748      -0.78849652       0.99468893       1.97121748      -0.78849652
6
Properties=species:S:1:pos:R:3:REF_forces:R:3:forces:R:3 REF_energy=-2567.7421091370843 split=val T=0 traj_n=53_old energy=-2567.7421091370843 pbc="F F F"
C       -3.42351250       0.42215700       0.28568790       2.96691963      -1.97364146      -3.23101909       2.96691963      -1.97364146      -3.23101909
N       -0.45742930       0.10283620       0.05184220      -3.28652191       3.02129059       1.42882214      -3.28652191       3.02129059       1.42882214
H       -3.20120220      -0.35379790       1.16443700      -0.70908963       2.03656022      -0.53218461      -0.70908963       2.03656022      -0.53218461
H       -2.90777670       0.72517700      -1.01773820      -1.71683730       0.11248407       3.91525984      -1.71683730       0.11248407       3.91525984
H       -0.22355840      -0.79405910      -0.16246630       1.60353155      -3.99929913      -1.01687446       1.60353155      -3.99929913      -1.01687446
H        0.13222500       0.77326170      -0.39960210       1.14164101       0.80461101      -0.56574260       1.14164101       0.80461101      -0.56574260
6
Properties=species:S:1:pos:R:3:REF_forces:R:3:forces:R:3 REF_energy=-2567.1410755989814 split=val T=5000 traj_n=35 energy=-2567.1410755989814 pbc="F F F"
C       -1.80765970      -0.60795870       0.84508960       0.41937760      -2.47363231       2.91447734       0.41937760      -2.47363231       2.91447734
N       -1.36107240       0.29045210       0.06256360       1.98686197      -0.17284037       0.73754362       1.98686197      -0.17284037       0.73754362
H       -5.13463070       4.49750480      -3.12772450       0.79138602       0.52836117      -1.01235261       0.79138602       0.52836117      -1.01235261
H       -4.68351000       4.75187900      -3.73736550      -0.79031033      -0.53063367       1.01450139      -0.79031033      -0.53063367       1.01450139
H       -2.20524500       0.35377410      -0.44001560      -1.18598241       2.69207696      -2.97297195      -1.18598241       2.69207696      -2.97297195
H       -0.42162490       0.77793080       0.28545680      -1.22101302      -0.04369580      -0.85552842      -1.22101302      -0.04369580      -0.85552842
6
Properties=species:S:1:pos:R:3:REF_forces:R:3:forces:R:3 REF_energy=-2566.5410995868515 split=val T=5000 traj_n=35 energy=-2566.5410995868515 pbc="F F F"
C       -1.61464620      -0.76247080       0.93120570      -0.05433106      -0.31039748       0.62918843      -0.05433106      -0.31039748       0.62918843
N       -1.43017490       0.22949690       0.10820280      -0.17066372       3.98187070      -2.22116344      -0.17066372       3.98187070      -2.22116344
H       -5.46317150       5.64872920      -3.89873070       0.23354972      -0.22598641      -0.19994998       0.23354972      -0.22598641      -0.19994998
H       -4.99299330       5.19370070      -4.31902810      -0.23256751       0.22481147       0.20040470      -0.23256751       0.22481147       0.20040470
H       -2.34824580       1.08333120      -0.39237450      -1.27730234      -1.52477855       0.23462696      -1.27730234      -1.52477855       0.23462696
H       -0.94674660       1.19965340      -0.07154990       1.50104135      -2.14631198       1.35794371       1.50104135      -2.14631198       1.35794371
6
Properties=species:S:1:pos:R:3:REF_forces:R:3:forces:R:3 REF_energy=-2566.8895684529843 split=val T=5000 traj_n=35 energy=-2566.8895684529843 pbc="F F F"
C       -2.14658780      -0.31274440       0.69288080      -3.51653534      -2.28708627       4.33372917      -3.51653534      -2.28708627       4.33372917
N       -1.22768300       0.31406760       0.06744890       3.66936892       1.50971661      -0.41773668       3.66936892       1.50971661      -0.41773668
H       -4.14979660       2.84875210      -2.32933040      -0.42168522       0.76294715       0.26814428      -0.42168522       0.76294715       0.26814428
H       -4.51147090       3.51091510      -2.08252620       0.43097791      -0.77177894      -0.26555379       0.43097791      -0.77177894      -0.26555379
H       -1.41282860       0.08962450      -0.83690330      -1.73963018       0.69027188      -6.05617713      -1.73963018       0.69027188      -6.05617713
H       -0.24665580      -0.01579570      -0.02210560       1.57764630       0.09633102       2.13799066       1.57764630       0.09633102       2.13799066
6
Properties=species:S:1:pos:R:3:REF_forces:R:3:forces:R:3 REF_energy=-2569.8924896947897 split=val T=0 traj_n=85_old energy=-2569.8924896947897 pbc="F F F"
C       -2.61031090       0.39043110       0.15758520      -0.11158599      -1.11239928      -0.71008624      -0.11158599      -1.11239928      -0.71008624
N       -1.04515450       0.09845670       0.09811870      -1.00608344      -1.57996898      -4.07355969      -1.00608344      -1.57996898      -4.07355969
H       -2.96801160       0.76863830       1.06252900      -0.92075315       1.75173771       1.78713208      -0.92075315       1.75173771       1.78713208
H       -3.17514100      -0.33680060      -0.38343150      -0.87561331      -0.78538512      -0.74462490      -0.87561331      -0.78538512      -0.74462490
H       -0.81540970      -0.22542300      -0.90694150       0.72938310       1.07400669       2.13603467       0.72938310       1.07400669       2.13603467
H       -0.64019800       0.58766120       0.83849130       2.17011711       0.65807503       1.61438803       2.17011711       0.65807503       1.61438803
6
Properties=species:S:1:pos:R:3:REF_forces:R:3:forces:R:3 REF_energy=-2566.711276528352 split=val T=5000 traj_n=35 energy=-2566.711276528352 pbc="F F F"
C       -2.22720000      -0.24307490       0.66601320      -2.93176056      -1.49350889       2.27661627      -2.93176056      -1.49350889       2.27661627
N       -1.20288020       0.29788800       0.06861700       4.06549419       0.41390553      -4.84744930       4.06549419       0.41390553      -4.84744930
H       -3.95335790       2.61474420      -2.16444090      -1.12606022       1.09371091       1.04589749      -1.12606022       1.09371091       1.04589749
H       -4.44833160       3.09644750      -1.69748240       1.13880868      -1.10675052      -1.03991880       1.13880868      -1.10675052      -1.03991880
H       -1.08122190       0.16385550      -1.00728830      -2.83630315       1.47487991      -1.03565632      -2.83630315       1.47487991      -1.03565632
H       -0.23555210      -0.06966790      -0.09707470       1.68951901      -0.38207059       3.60087339       1.68951901      -0.38207059       3.60087339
6
Properties=species:S:1:pos:R:3:REF_forces:R:3:forces:R:3 REF_energy=-2566.6605430986333 split=val T=5000 traj_n=35 energy=-2566.6605430986333 pbc="F F F"
C       -2.17827030      -0.28652770       0.68268410      -3.36904374      -1.98607357       3.50002423      -3.36904374      -1.98607357       3.50002423
N       -1.21800560       0.30859140       0.06643030       3.39565219       1.43288690      -0.34054583       3.39565219       1.43288690      -0.34054583
H       -4.06886010       2.75157680      -2.27019970      -0.75166047       1.07405657       0.58145415      -0.75166047       1.07405657       0.58145415
H       -4.49261430       3.35873410      -1.93014550       0.76021294      -1.08432324      -0.57792613       0.76021294      -1.08432324      -0.57792613
H       -1.26619030       0.11558900      -0.86505330      -2.37299552       0.79012289      -6.15703493      -2.37299552       0.79012289      -6.15703493
H       -0.25527550      -0.03746210      -0.06955470       2.33806436      -0.23067379       2.99400574       2.33806436      -0.23067379       2.99400574
6
Properties=species:S:1:pos:R:3:REF_forces:R:3:forces:R:3 REF_energy=-2568.6204897775438 split=val T=0 traj_n=85_old energy=-2568.6204897775438 pbc="F F F"
C       -3.06349700       0.41155800       0.32295300       1.12538109       1.25965902      -2.79669232       1.12538109       1.25965902      -2.79669232
N       -0.67031380       0.04453080      -0.02790120       1.30136113       0.97675368       0.98781847       1.30136113       0.97675368       0.98781847
H       -3.07462840       1.09450730      -0.62370940       0.28513433       0.17106121       1.80813702       0.28513433       0.17106121       1.80813702
H       -3.61126700      -0.47263390       0.01520560      -0.43983886      -1.44225446       1.02598825      -0.43983886      -1.44225446       1.02598825
H       -0.56891230       1.12148020       0.05334460      -0.86100867      -1.39445744      -0.26138454      -0.86100867      -1.39445744      -0.26138454
H       -0.26903000      -0.54632150       0.78053640      -1.41112349       0.42915875      -0.76391749      -1.41112349       0.42915875      -0.76391749
6
Properties=species:S:1:pos:R:3:REF_forces:R:3:forces:R:3 REF_energy=-2567.6710647096725 split=val T=0 traj_n=53_old energy=-2567.6710647096725 pbc="F F F"
C       -3.49557030       0.36061660       0.27294840       0.83504351       2.98453333       0.22289898       0.83504351       2.98453333       0.22289898
N       -0.39087820       0.11595170      -0.01783280      -1.10694844       3.19282515      -1.81031901      -1.10694844       3.19282515      -1.81031901
H       -3.75993790      -0.36467020       1.20318810       0.43038476       0.93619031      -2.16179085       0.43038476       0.93619031      -2.16179085
H       -3.11117240       1.55701390      -0.49245270      -1.12828346      -3.93262970       1.92512459      -1.12828346      -3.93262970       1.92512459
H        0.00977590      -0.65262690       0.37311950       0.97870381      -4.37190327       2.58991853       0.97870381      -4.37190327       2.58991853
H        0.52518740       0.36868930      -0.42491950      -0.00907836       1.19094505      -0.76573999      -0.00907836       1.19094505      -0.76573999
6
Properties=species:S:1:pos:R:3:REF_forces:R:3:forces:R:3 REF_energy=-2567.8014190414633 split=val T=5000 traj_n=8 energy=-2567.8014190414633 pbc="F F F"
C       -2.56187010       0.37770750       0.25612810       3.46777586       0.92756107       3.20096958       3.46777586       0.92756107       3.20096958
N       -1.13091350       0.10187570       0.01060940      -0.82736394       6.87395944       7.53853859      -0.82736394       6.87395944       7.53853859
H       -3.21790900       0.75895600       0.99931800      -0.45771096      -0.02345407       1.25831022      -0.45771096      -0.02345407       1.25831022
H       -2.71345590      -0.08535700      -0.62040240      -2.42786189      -1.33520385      -5.90956053      -2.42786189      -1.33520385      -5.90956053
H       -0.76736530      -0.53727920      -0.54609580       2.70414890      -5.04842957      -3.02096483       2.70414890      -5.04842957      -3.02096483
H       -0.25785150       0.78387970       0.84636070      -2.42556769      -1.41793162      -3.04427292      -2.42556769      -1.41793162      -3.04427292
6
Properties=species:S:1:pos:R:3:REF_forces:R:3:forces:R:3 REF_energy=-2568.773108960355 split=val T=5000 traj_n=28 energy=-2568.773108960355 pbc="F F F"
C       -2.65158360       0.34747150       0.13510450      -0.52305282       1.19600030       2.77182302      -0.52305282       1.19600030       2.77182302
N       -1.07335580       0.11050910       0.15740500       3.49397380      -4.64908102      -5.43662015       3.49397380      -4.64908102      -5.43662015
H       -2.52473740       0.87342240       1.31303480      -2.37825662      -1.08732100      -3.14456698      -2.37825662      -1.08732100      -3.14456698
H       -3.15473740      -0.16184740      -0.80699450       0.41424717       1.42482541       1.78128966       0.41424717       1.42482541       1.78128966
H       -0.66038430      -0.27595780      -0.89181610      -1.31911908       1.06635869       3.38885347      -1.31911908       1.06635869       3.38885347
H       -0.34805860       0.72462840       0.46635240       0.31264041       2.04699581       0.63944441       0.31264041       2.04699581       0.63944441
6
Properties=species:S:1:pos:R:3:REF_forces:R:3:forces:R:3 REF_energy=-2567.502911901299 split=val T=0 traj_n=6_old energy=-2567.502911901299 pbc="F F F"
C       -2.39636550       0.34251410       0.18421000     -18.64740484       1.91082108       2.32103388     -18.64740484       1.91082108       2.32103388
N       -1.25975130       0.13619430       0.08930360      21.17363745      -3.38282146      -1.62800639      21.17363745      -3.38282146      -1.62800639
H       -2.87639290      -0.68195180      -0.35864440      -1.56499570       3.17684888       0.79053725      -1.56499570       3.17684888       0.79053725
H       -3.06037260       1.13443620       0.86517060       2.72457827      -1.93384860      -1.39075783       2.72457827      -1.93384860      -1.39075783
H       -0.28888210       0.60059260       0.57930590      -2.73559396       0.62715808      -1.44036295      -2.73559396       0.62715808      -1.44036295
H       -1.15575610      -0.81626420      -0.52578990       1.30590412       1.91811566       1.35083251       1.30590412       1.91811566       1.35083251
6
Properties=species:S:1:pos:R:3:REF_forces:R:3:forces:R:3 REF_energy=-2566.4503611876803 split=val T=5000 traj_n=35 energy=-2566.4503611876803 pbc="F F F"
C       -1.85782570      -0.56321840       0.82000400      -0.80490864      -2.76615996       3.16766325      -0.80490864      -2.76615996       3.16766325
N       -1.32943710       0.30696870       0.06386690      -2.57984799       0.37950653      -2.24994226      -2.57984799       0.37950653      -2.24994226
H       -4.99093500       4.17876450      -2.97317670       0.17608716       0.24122909      -0.58620673       0.17608716       0.24122909      -0.58620673
H       -4.64768700       4.62244860      -3.51135670      -0.17564724      -0.24359955       0.58807094      -0.17564724      -0.24359955       0.58807094
H       -2.31821770       0.21547000      -0.60921390       3.54240979       1.76715250       0.22897645       3.54240979       1.76715250       0.22897645
H       -0.33944660       0.58598110       0.35536570      -0.15796103       0.62341759      -1.14896839      -0.15796103       0.62341759      -1.14896839
6
Properties=species:S:1:pos:R:3:REF_forces:R:3:forces:R:3 REF_energy=-2568.881816915739 split=val T=5000 traj_n=12 energy=-2568.881816915739 pbc="F F F"
C       -2.45131500       0.25956450       0.19825730      -4.82615686      -3.17195375      -2.48777472      -4.82615686      -3.17195375      -2.48777472
N       -1.22406660       0.15695610       0.07736870       6.85765376       1.99012918       1.53715610       6.85765376       1.99012918       1.53715610
H       -2.63674270       0.95686180       0.92876700      -3.11151992       3.25907420       3.65313138      -3.11151992       3.25907420       3.65313138
H       -3.16999680       0.25937870      -0.73525400       0.16286207       1.18064382       0.69068722       0.16286207       1.18064382       0.69068722
H       -0.66559610      -0.36449720      -0.50445160       2.26568214      -2.89672706      -1.87105151       2.26568214      -2.89672706      -1.87105151
H       -0.50659430       0.70990130       0.75148240      -1.34749419      -0.36543329      -1.52322524      -1.34749419      -0.36543329      -1.52322524
6
Properties=species:S:1:pos:R:3:REF_forces:R:3:forces:R:3 REF_energy=-2566.900206964083 split=val T=5000 traj_n=35 energy=-2566.900206964083 pbc="F F F"
C       -2.07037270      -0.37416120       0.71970190      -3.40316115      -2.95018169       5.16537580      -3.40316115      -2.95018169       5.16537580
N       -1.24852950       0.32344030       0.07537250       1.24220277       0.56863627      -5.92025858       1.24220277       0.56863627      -5.92025858
H       -4.35366630       3.09965160      -2.46573410      -0.16575667       0.58693723      -0.00204963      -0.16575667       0.58693723      -0.00204963
H       -4.54697800       3.85825340      -2.45375840       0.16844820      -0.59293341       0.00358386       0.16844820      -0.59293341       0.00358386
H       -1.82345550       0.03725770      -0.92136830       2.50246857       1.95314206       0.77247468       2.50246857       1.95314206       0.77247468
H       -0.20257220       0.06095320       0.13967440      -0.34531085       0.42632817      -0.01936334      -0.34531085       0.42632817      -0.01936334
6
Properties=species:S:1:pos:R:3:REF_forces:R:3:forces:R:3 REF_energy=-2568.920173971055 split=val T=0 traj_n=2_old energy=-2568.920173971055 pbc="F F F"
C       -3.58797870       0.57267500      -0.04399910       1.16776650      -1.22328120       2.73377989       1.16776650      -1.22328120       2.73377989
N       -0.43528300       0.19390700      -0.04207050       1.51376965      -0.34652971      -0.38558086       1.51376965      -0.34652971      -0.38558086
H       -3.37820670       1.08869980       0.97113400      -0.49824635       0.57071660      -1.64834876      -0.49824635       0.57071660      -1.64834876
H       -3.43988210      -0.29990860      -0.70058460      -0.30355716       0.70686985      -1.11820931      -0.30355716       0.70686985      -1.11820931
H       -0.00743150      -0.09554590      -0.99294280      -0.52867459       0.43536416       1.30326349      -0.52867459       0.43536416       1.30326349
H        0.44925470       0.33199690       0.57109780      -1.35103094      -0.14331119      -0.88484265      -1.35103094      -0.14331119      -0.88484265
6
Properties=species:S:1:pos:R:3:REF_forces:R:3:forces:R:3 REF_energy=-2566.7016376610163 split=val T=5000 traj_n=35 energy=-2566.7016376610163 pbc="F F F"
C       -2.05786590      -0.38431830       0.72462050      -3.35605545      -3.02081499       5.12532166      -3.35605545      -3.02081499       5.12532166
N       -1.25185190       0.32425640       0.07624240       0.94073797       0.65763317      -5.92850262       0.94073797       0.65763317      -5.92850262
H       -4.38819340       3.14299010      -2.48839010      -0.17356197       0.78058235      -0.03795190      -0.17356197       0.78058235      -0.03795190
H       -4.55233840       3.91459750      -2.51570990       0.17574021      -0.78609541       0.03934415       0.17574021      -0.78609541       0.03934415
H       -1.88929900       0.03342920      -0.93558970       2.89874903       1.93767944       1.10196204       2.89874903       1.93767944       1.10196204
H       -0.19760790       0.07829370       0.16770120      -0.48481584       0.42841565      -0.30175374      -0.48481584       0.42841565      -0.30175374
6
Properties=species:S:1:pos:R:3:REF_forces:R:3:forces:R:3 REF_energy=-2567.1687766092978 split=val T=0 traj_n=6_old energy=-2567.1687766092978 pbc="F F F"
C       -3.02515500       0.34847150       0.22524040       0.71728112      -2.21324073       2.13250187       0.71728112      -2.21324073       2.13250187
N       -0.63810480       0.09760110      -0.07490660      -2.94363638       0.46640766       5.57197080      -2.94363638       0.46640766       5.57197080
H       -3.57323100       0.05798360       1.10248370       1.27903532      -0.73544571       2.42525063       1.27903532      -0.73544571       2.42525063
H       -3.50235050       0.70423630      -0.56766070      -0.50554854       2.45338240      -5.34849518      -0.50554854       2.45338240      -5.34849518
H       -0.84828850      -0.45386060       0.95809200       0.08104411      -0.66706114      -2.61012082       0.08104411      -0.66706114      -2.61012082
H       -0.43062140       0.77516770       0.77437160       1.35280058       0.69597238      -2.17118263       1.35280058       0.69597238      -2.17118263
6
Properties=species:S:1:pos:R:3:REF_forces:R:3:forces:R:3 REF_energy=-2566.485737236501 split=val T=5000 traj_n=35 energy=-2566.485737236501 pbc="F F F"
C       -2.04544550      -0.39446970       0.72965670      -3.32528978      -3.10303713       5.09239827      -3.32528978      -3.10303713       5.09239827
N       -1.25520110       0.32484290       0.07686540       0.71488644       0.78262525      -5.82771290       0.71488644       0.78262525      -5.82771290
H       -4.42292310       3.18720050      -2.51109600      -0.18311892       0.99714505      -0.09424703      -0.18311892       0.99714505      -0.09424703
H       -4.55749520       3.97006380      -2.57761150       0.18466107      -1.00216626       0.09546682       0.18466107      -1.00216626       0.09546682
H       -1.95217070       0.03137160      -0.94695740       3.19762262       1.89625187       1.29017519       3.19762262       1.89625187       1.29017519
H       -0.19421410       0.09699270       0.19490520      -0.58868630       0.42899168      -0.55612312      -0.58868630       0.42899168      -0.55612312
6
Properties=species:S:1:pos:R:3:REF_forces:R:3:forces:R:3 REF_energy=-2564.2138777032296 split=val T=0 traj_n=6_old energy=-2564.2138777032296 pbc="F F F"
C       -2.32587260       0.36845990       0.19982670     -23.68463304       7.91800095       1.36291546     -23.68463304       7.91800095       1.36291546
N       -1.29313800       0.09083320       0.06413850      27.41587011      -4.90087683      -4.19637836      27.41587011      -4.90087683      -4.19637836
H       -2.90562700      -0.49717910      -0.53923040      -1.46981273       0.63714970      -0.16757901      -1.46981273       0.63714970      -0.16757901
H       -2.94952660       0.79280050       0.84280960      -4.13636675       1.65779931       3.34480188      -4.13636675       1.65779931       3.34480188
H       -0.49738620       1.10678310       0.65712240      -1.27647471      -1.85998039      -0.64044272      -1.27647471      -1.85998039      -0.64044272
H       -1.42305910      -0.88440220      -0.22803530       3.15346186      -3.45227843       0.29631555       3.15346186      -3.45227843       0.29631555
6
Properties=species:S:1:pos:R:3:REF_forces:R:3:forces:R:3 REF_energy=-2567.917696575584 split=val T=0 traj_n=53_old energy=-2567.917696575584 pbc="F F F"
C       -3.42940050       0.42292110       0.28505650       3.08860568      -2.05111796      -3.16708192       3.08860568      -2.05111796      -3.16708192
N       -0.45504970       0.10668450       0.04917650      -3.48521740       0.79053885       1.36174417      -3.48521740       0.79053885       1.36174417
H       -3.20344090      -0.36319720       1.15266230      -0.78114157       2.05043096      -0.46453976      -0.78114157       2.05043096      -0.46453976
H       -2.90911570       0.72690260      -0.98320730      -1.76075606       0.17663891       3.78792178      -1.76075606       0.17663891       3.78792178
H       -0.19895110      -0.81638680      -0.14519250       1.15381703      -2.50901949      -0.50792352       1.15381703      -2.50901949      -0.50792352
H        0.14622780       0.74032020      -0.39740130       1.78432295       1.54261681      -1.00956528       1.78432295       1.54261681      -1.00956528
6
Properties=species:S:1:pos:R:3:REF_forces:R:3:forces:R:3 REF_energy=-2566.818311601003 split=val T=5000 traj_n=35 energy=-2566.818311601003 pbc="F F F"
C       -1.48736060      -0.82955300       0.96024220       0.23673285      -3.16236652       2.57805917       0.23673285      -3.16236652       2.57805917
N       -1.49969250       0.23321720       0.13628170      -3.30660444       5.54782433      -3.82982547      -3.30660444       5.54782433      -3.82982547
H       -5.56703270       6.30760230      -4.48159540       0.63671570      -1.76566625      -0.22111340       0.63671570      -1.76566625      -0.22111340
H       -5.28766810       5.53018550      -4.58142200      -0.63631903       1.76465802       0.22116400      -0.63631903       1.76465802       0.22116400
H       -2.37008100       0.97495930      -0.20489870      -1.18410144      -2.76590501       0.92077906      -1.18410144      -2.76590501       0.92077906
H       -1.05610170       1.09534680      -0.15098090       4.25372682       0.38111707       0.33097901       4.25372682       0.38111707       0.33097901
6
Properties=species:S:1:pos:R:3:REF_forces:R:3:forces:R:3 REF_energy=-2567.677539474892 split=val T=0 traj_n=6_old energy=-2567.677539474892 pbc="F F F"
C       -2.98058680       0.37182160       0.21694230      -2.73708803      -0.67624168      -2.86235157      -2.73708803      -0.67624168      -2.86235157
N       -0.68078310       0.13054910      -0.04944300      -5.54545594      -5.10618087       2.53014295      -5.54545594      -5.10618087       2.53014295