6
Properties=species:S:1:pos:R:3:REF_forces:R:3:forces:R:3 REF_energy=-2565.596894427242 split=test T=0 traj_n=13_old energy=-2565.596894427242 pbc="F F F"
C       -2.55327110       0.35130930       0.18685930       1.47488202       1.73805486       0.23028622       1.47488202       1.73805486       0.23028622
N       -1.09681360       0.17766140       0.01282550      -1.81086702      -4.27129913       1.96553447      -1.81086702      -4.27129913       1.96553447
H       -3.18372510       0.64851350       1.14260050       0.25839404      -0.23449728      -0.68564143       0.25839404      -0.23449728      -0.68564143
H       -3.43691370      -0.35074850      -0.32494400       0.81986917       0.26010521       0.26849441       0.81986917       0.26010521       0.26849441
H       -1.12910900      -1.07231620       0.40986690       1.82221705       4.19999148      -1.42762463       1.82221705       4.19999148      -1.42762463
H        0.04408530       1.11848730       0.36056370      -2.53418673      -1.69220829      -0.35138874      -2.53418673      -1.69220829      -0.35138874
6
Properties=species:S:1:pos:R:3:REF_forces:R:3:forces:R:3 REF_energy=-2567.1069018802727 split=test T=5000 traj_n=13 energy=-2567.1069018802727 pbc="F F F"
C       -2.47126180       0.34363470       0.18751480      -6.70392255      -4.28785786     -12.35593113      -6.70392255      -4.28785786     -12.35593113
N       -1.13996490       0.17238260       0.06844590       7.48991754       1.25233904       1.91167042       7.48991754       1.25233904       1.91167042
H       -2.88779350       0.68898330       0.89797210      -5.78096057       4.63946529      11.32792569      -5.78096057       4.63946529      11.32792569
H       -3.21741750      -0.27398910      -0.56444760       1.65507775       1.61028933       1.57975702       1.65507775       1.61028933       1.57975702
H       -1.12511990      -0.50717850      -0.66818230       2.52456412      -1.92059503      -0.11962573       2.52456412      -1.92059503      -0.11962573
H       -0.67970400       0.43847900       1.02708900       0.83215123      -1.29406090      -2.34327783       0.83215123      -1.29406090      -2.34327783
6
Properties=species:S:1:pos:R:3:REF_forces:R:3:forces:R:3 REF_energy=-2567.2812259328416 split=test T=0 traj_n=11_old energy=-2567.2812259328416 pbc="F F F"
C       -2.93326860       0.36472850       0.26386820      -1.06304927       4.62797858      -0.39618589      -1.06304927       4.62797858      -0.39618589
N       -0.79199660       0.00546810       0.04855720       2.73718676       2.13761343      -1.17013762       2.73718676       2.13761343      -1.17013762
H       -3.07010020       1.58943350       0.06528380       0.83994707      -2.93971704       0.79535997       0.83994707      -2.93971704       0.79535997
H       -3.53471210      -0.42315990      -0.24810890       1.06891966      -0.87277008       0.13648687       1.06891966      -0.87277008       0.13648687
H       -0.61188520       0.94045110      -0.49921140      -2.29419732      -1.20796231      -1.40475111      -2.29419732      -1.20796231      -1.40475111
H       -0.13138660       0.41865630       0.76897760      -1.28866158      -1.77282122       2.03775054      -1.28866158      -1.77282122       2.03775054
6
Properties=species:S:1:pos:R:3:REF_forces:R:3:forces:R:3 REF_energy=-2566.819449320292 split=test T=5000 traj_n=18 energy=-2566.819449320292 pbc="F F F"
C       -3.35961200       0.38131120       0.16807490       1.29549120      -4.00707512      -1.00481316       1.29549120      -4.00707512      -1.00481316
N       -0.39752730       0.01003710       0.07956690      -0.77398773       3.62820669      -5.90067891      -0.77398773       3.62820669      -5.90067891
H       -3.19073850       1.46941870       0.41579910      -0.48880099      -0.67784836      -0.24009621      -0.48880099      -0.67784836      -0.24009621
H       -3.60752220      -0.86156770      -0.17056790       0.64906825       4.51486253       1.14724020       0.64906825       4.51486253       1.14724020
H       -0.36502600       0.99651490      -0.42147610       0.47411989      -2.77688737      -1.64436231       0.47411989      -2.77688737      -1.64436231
H       -0.57305810       0.33022790       0.92826770      -1.15563938      -0.68113197       7.64269646      -1.15563938      -0.68113197       7.64269646
6
Properties=species:S:1:pos:R:3:REF_forces:R:3:forces:R:3 REF_energy=-2567.4802830260437 split=test T=5000 traj_n=5 energy=-2567.4802830260437 pbc="F F F"
C       -3.66453370       0.58248110       0.32786420       0.67297509      -4.55158935       4.51057845       0.67297509      -4.55158935       4.51057845
N       -0.19172000      -0.10589910      -0.13513550       0.21008871       2.52746721      -0.28145637       0.21008871       2.52746721      -0.28145637
H       -3.06345250       1.20463150      -0.24375550       0.65398667       2.31438830      -2.03850207       0.65398667       2.31438830      -2.03850207
H       -3.57537500      -0.27624130       1.27048400      -1.25138043       2.27778695      -2.40187086      -1.25138043       2.27778695      -2.40187086
H       -0.16552830       1.05792370      -0.09717260      -0.05362211      -3.22371397       0.31725729      -0.05362211      -3.22371397       0.31725729
H        0.17680580      -0.63296580       0.69891850      -0.23255213       0.64567841      -0.10244700      -0.23255213       0.64567841      -0.10244700
6
Properties=species:S:1:pos:R:3:REF_forces:R:3:forces:R:3 REF_energy=-2565.6026216248833 split=test T=0 traj_n=11_old energy=-2565.6026216248833 pbc="F F F"
C       -3.19619470       0.10055440       0.30901610       0.63562390       2.62358682       0.84308706       0.63562390       2.62358682       0.84308706
N       -0.67433020       0.34915060       0.01504340       6.94487458      -0.14893126       1.24633880       6.94487458      -0.14893126       1.24633880
H       -2.77089840       0.97184420       1.16697400      -0.88783377      -2.56903953      -2.45363442      -0.88783377      -2.56903953      -2.45363442
H       -3.82804110       0.30750900      -0.65436370       0.83343508      -0.49034330       1.19932916       0.83343508      -0.49034330       1.19932916
H       -0.02866530       0.63800410      -0.77500210      -3.06901819       0.85595065      -1.63679612      -3.06901819       0.85595065      -1.63679612
H        0.32471680      -0.15104290       0.47521950      -4.45703816      -0.27154364       0.80168818      -4.45703816      -0.27154364       0.80168818
6
Properties=species:S:1:pos:R:3:REF_forces:R:3:forces:R:3 REF_energy=-2567.312355319153 split=test T=0 traj_n=11_old energy=-2567.312355319153 pbc="F F F"
C       -3.06441090       0.38955000       0.12199730       0.38747931      -1.29775850       1.55009636       0.38747931      -1.29775850       1.55009636
N       -0.71901050       0.21361400       0.15770040       3.99567850      -2.30320986      -0.83778369       3.99567850      -2.30320986      -0.83778369
H       -3.42747020      -0.12493800      -0.85394640       0.33570701       0.73312986       1.30698640       0.33570701       0.73312986       1.30698640
H       -3.08207340       0.30696920       1.33697760      -0.18542396       0.24148409      -2.64004333      -0.18542396       0.24148409      -2.64004333
H        0.24450250      -0.19318310       0.57175980      -2.60570331       1.64553983       1.04505730      -2.60570331       1.64553983       1.04505730
H       -0.68588650      -0.36139980      -0.72776470      -1.92792756       0.98055696      -0.42435002      -1.92792756       0.98055696      -0.42435002
6
Properties=species:S:1:pos:R:3:REF_forces:R:3:forces:R:3 REF_energy=-2567.7651658377235 split=test T=0 traj_n=13_old energy=-2567.7651658377235 pbc="F F F"
C       -2.66226260       0.37818650       0.24618990       4.28056014       0.24811389       0.18224325       4.28056014       0.24811389       0.18224325
N       -0.96113970       0.03801330       0.09700810      -3.03117484       1.38454553      -1.23552371      -3.03117484       1.38454553      -1.23552371
H       -3.33415810       1.13595400       0.83662250       0.26297389      -0.97394264      -1.11428292       0.26297389      -0.97394264      -1.11428292
H       -3.64526710      -0.30074840      -0.87539280       0.95124371       0.46004480       0.93592461       0.95124371       0.46004480       0.93592461
H       -0.66754930       0.07087740      -0.96972660      -0.85939068       0.25746556       2.04878952      -0.85939068       0.25746556       2.04878952
H       -0.44607180       0.89412960       0.60940360      -1.60443694      -1.37635168      -0.81716313      -1.60443694      -1.37635168      -0.81716313
6
Properties=species:S:1:pos:R:3:REF_forces:R:3:forces:R:3 REF_energy=-2568.610295146057 split=test T=0 traj_n=24_old energy=-2568.610295146057 pbc="F F F"
C       -2.92971250       0.36001860       0.22071150      -0.54887693      -0.11612347      -2.24484109      -0.54887693      -0.11612347      -2.24484109
N       -0.78269440       0.08335600       0.05568190      -2.24909837       2.35712338       2.67075300      -2.24909837       2.35712338       2.67075300
H       -3.14858060       1.07442650       0.99770840      -0.56500361       0.20897563       1.11276572      -0.56500361       0.20897563       1.11276572
H       -3.58100900      -0.07378470      -0.60365290       0.21204162      -0.07493944       1.13252516       0.21204162      -0.07493944       1.13252516
H       -0.48378040      -0.24426530      -0.78762590       2.08326940      -1.83032364      -2.89623789       2.08326940      -1.83032364      -2.89623789
H       -0.35463640       0.65717180       0.77424740       1.07026692      -0.54359038       0.22430213       1.07026692      -0.54359038       0.22430213
6
Properties=species:S:1:pos:R:3:REF_forces:R:3:forces:R:3 REF_energy=-2564.170451286291 split=test T=0 traj_n=13_old energy=-2564.170451286291 pbc="F F F"
C       -2.47519200       0.35348380       0.28887230      -9.67690304       0.12815927      -2.79417521      -9.67690304       0.12815927      -2.79417521
N       -1.23397230       0.06954560       0.13300710      -6.96984709     -17.00872369      -3.10436721      -6.96984709     -17.00872369      -3.10436721
H       -3.18700190       1.35147300       0.40046550       1.91480115      -1.67229602       0.03637165       1.91480115      -1.67229602       0.03637165
H       -2.85710320      -0.48411960      -0.48763270      -1.69110060       0.77705428       1.86813629      -1.69110060       0.77705428       1.86813629
H       -0.77196560      -0.96345060      -0.72054510       0.41847242      -0.95123738      -1.31614848       0.41847242      -0.95123738      -1.31614848
H       -0.77438040       0.68328770       0.28933250      16.00388086      18.77122198       5.30988044      16.00388086      18.77122198       5.30988044
6
Properties=species:S:1:pos:R:3:REF_forces:R:3:forces:R:3 REF_energy=-2567.084230504778 split=test T=0 traj_n=13_old energy=-2567.084230504778 pbc="F F F"
C       -2.47822900       0.32898160       0.22207140      -1.82325372       2.41457828       1.69596467      -1.82325372       2.41457828       1.69596467
N       -1.21117480       0.14118780       0.08167170       6.02212832       0.37707987      -0.62018294       6.02212832       0.37707987      -0.62018294
H       -2.71517140       1.37232510      -0.29199290      -1.47061481      -0.45623869       1.04623651      -1.47061481      -0.45623869       1.04623651
H       -2.84172630      -0.70976010       0.40265890      -2.27349439      -1.34566670      -1.72902865      -2.27349439      -1.34566670      -1.72902865
H       -0.85601470       0.36950020      -0.97144480       0.54382420      -2.30427219       1.71381460       0.54382420      -2.30427219       1.71381460
H       -0.44632960       0.03869300       0.97981610      -1.00254452       1.31445576      -2.10897391      -1.00254452       1.31445576      -2.10897391
6
Properties=species:S:1:pos:R:3:REF_forces:R:3:forces:R:3 REF_energy=-2568.1827175728185 split=test T=0 traj_n=11_old energy=-2568.1827175728185 pbc="F F F"
C       -3.13467850       0.43295370       0.21705910      -1.80870308      -3.27238537       0.48983206      -1.80870308      -3.27238537       0.48983206
N       -0.61465830       0.12927820       0.03494040      -0.32532880       1.14751474      -0.89272653      -0.32532880       1.14751474      -0.89272653
H       -3.20026350       0.66858500      -0.88693720       1.12427984       0.80837438       0.59117410       1.12427984       0.80837438       0.59117410
H       -3.51153700      -0.47443240       0.96055150       1.59069434       2.37232971      -0.84174535       1.59069434       2.37232971      -0.84174535
H       -0.42920960       0.87721430       0.82151130      -0.29456396      -2.30031593      -0.74231076      -0.29456396      -2.30031593      -0.74231076
H       -0.36149230      -0.90669290      -0.02173060      -0.28696182       1.24499134       1.39582090      -0.28696182       1.24499134       1.39582090
6
Properties=species:S:1:pos:R:3:REF_forces:R:3:forces:R:3 REF_energy=-2566.3134436534747 split=test T=0 traj_n=13_old energy=-2566.3134436534747 pbc="F F F"
C       -2.61020900       0.21910770       0.30388480       0.33130785       0.56335980       0.47383774       0.33130785       0.56335980       0.47383774
N       -1.34976720       0.10215610      -0.04283380       2.18217265      -2.75258592      -2.23005570       2.18217265      -2.75258592      -2.23005570
H       -2.42096220       1.37494140       0.33326670      -0.75612288       0.31020635       0.78125912      -0.75612288       0.31020635       0.78125912
H       -3.60137050      -0.29821190       0.52387370       0.87667446       0.26178522      -0.11801519       0.87667446       0.26178522      -0.11801519
H       -0.17681360      -0.45538980       0.02117480      -2.42500082       1.80290729       1.20067554      -2.42500082       1.80290729       1.20067554
H        1.36721110       0.55905110       1.02191600      -0.21112697      -0.18507620      -0.10754540      -0.21112697      -0.18507620      -0.10754540
6
Properties=species:S:1:pos:R:3:REF_forces:R:3:forces:R:3 REF_energy=-2566.9313383867307 split=test T=0 traj_n=20_old energy=-2566.9313383867307 pbc="F F F"
C       -2.60429080       0.40724310       0.26757870       0.28599324      -2.27357918      -4.01076059       0.28599324      -2.27357918      -4.01076059
N       -1.00668450       0.17181620       0.02429530      -0.57367065      -0.56053560       5.61760171      -0.57367065      -0.56053560       5.61760171
H       -3.45702790       0.87002140       0.80387690       0.55452729       0.31144119       0.81623245       0.55452729       0.31144119       0.81623245
H       -3.58510070      -0.67362070      -0.76809750       1.04988691       1.20715781       1.23980578       1.04988691       1.20715781       1.23980578
H       -0.52637140      -0.38222860      -0.68366640      -0.79767700      -0.13536571      -1.34930352      -0.79767700      -0.13536571      -1.34930352
H       -0.64195700      -0.23721050       1.01866800      -0.51894831       1.45066320      -2.31344573      -0.51894831       1.45066320      -2.31344573
6
Properties=species:S:1:pos:R:3:REF_forces:R:3:forces:R:3 REF_energy=-2564.8866118482156 split=test T=5000 traj_n=5 energy=-2564.8866118482156 pbc="F F F"
C       -3.56379780       0.58727300       0.33189810       5.24968798      -3.36906323       1.01911389       5.24968798      -3.36906323       1.01911389
N       -0.29624630      -0.11640820      -0.10205440      -2.21585971       3.12657599      -3.12447504      -2.21585971       3.12657599      -3.12447504
H       -2.68703420       1.11255440      -0.11494100      -1.63248665       2.68302744      -1.32957884      -1.63248665       2.68302744      -1.32957884
H       -2.95010880      -0.44441270       0.83048020      -3.45264270       0.49155506       0.19211223      -3.45264270       0.49155506       0.19211223
H       -0.67423080       1.08986810      -0.40409660       1.73724743      -3.79041312       1.82873999       1.73724743      -3.79041312       1.82873999
H       -0.14291560      -0.31194220       0.87996300       0.31525404       0.85845002       1.41409111       0.31525404       0.85845002       1.41409111
6
Properties=species:S:1:pos:R:3:REF_forces:R:3:forces:R:3 REF_energy=-2567.691186020848 split=test T=0 traj_n=24_old energy=-2567.691186020848 pbc="F F F"
C       -4.84075010       0.66376220       0.25791560       3.00486705      -0.16144832      -1.48441536       3.00486705      -0.16144832      -1.48441536
N        0.42817280       0.79582520      -1.28542720      -0.27737881       2.38109717       0.00138917      -0.27737881       2.38109717       0.00138917
H       -4.53310610       1.58911950       0.73386260      -1.38491618       1.03497086       1.33394735      -1.38491618       1.03497086       1.33394735
H       -4.43224980      -0.10588680      -0.44374590      -1.59718761      -0.89937566       0.14759028      -1.59718761      -0.89937566       0.14759028
H        0.09493320       1.40791890      -2.21375260       1.16758241      -1.03189932       2.92259956       1.16758241      -1.03189932       2.92259956
H        0.73641860       1.49086540      -0.40689910      -0.91392296      -1.32215720      -2.92104081      -0.91392296      -1.32215720      -2.92104081
6
Properties=species:S:1:pos:R:3:REF_forces:R:3:forces:R:3 REF_energy=-2565.203655034765 split=test T=0 traj_n=24_old energy=-2565.203655034765 pbc="F F F"
C       -4.32780500       0.58287980       0.27253410      -0.24153948      -1.68735507      -1.75284647      -0.24153948      -1.68735507      -1.75284647
N        0.28134120       0.40545890      -0.65542450      -4.45731106       3.73315445      -2.07949569      -4.45731106       3.73315445      -2.07949569
H       -3.89896630       1.35073720       0.89956460       0.36582533       0.45872891       0.15291344       0.36582533       0.45872891       0.15291344
H       -4.20155600      -0.05509900      -0.69026800      -0.05887616       1.23156406       1.58267054      -0.05887616       1.23156406       1.58267054
H       -0.47707380       0.89853240      -1.34564470       2.04012835      -3.68110740      -3.14829827       2.04012835      -3.68110740      -3.14829827
H       -0.22694830       1.18081480      -0.17618450       2.35191067      -0.05444075       5.24508195       2.35191067      -0.05444075       5.24508195
6
Properties=species:S:1:pos:R:3:REF_forces:R:3:forces:R:3 REF_energy=-2566.873159869604 split=test T=0 traj_n=11_old energy=-2566.873159869604 pbc="F F F"
C       -3.01776350       0.17805210       0.26620830      -3.65321699       0.17007705       2.87680250      -3.65321699       0.17007705       2.87680250
N       -0.67187070       0.36172610      -0.00997070      -0.23180867       1.79322303       2.10347138      -0.23180867       1.79322303       2.10347138
H       -3.51120740       0.00220180       1.41530570       2.91094439      -0.09398766      -2.00073020       2.91094439      -0.09398766      -2.00073020
H       -3.78775120       0.56290930      -0.50262870       2.19497464      -0.12536314      -0.91490605       2.19497464      -0.12536314      -0.91490605
H       -0.95388800      -0.17911200      -0.87777760       0.59901633      -0.96891207       1.23549708       0.59901633      -0.96891207       1.23549708
H       -0.14325110       0.15296450       1.00623290      -1.81934261      -0.77532455      -3.29997007      -1.81934261      -0.77532455      -3.29997007
6
Properties=species:S:1:pos:R:3:REF_forces:R:3:forces:R:3 REF_energy=-2568.208636079606 split=test T=0 traj_n=11_old energy=-2568.208636079606 pbc="F F F"
C       -3.11605780       0.42973060       0.26275640      -0.34374680      -0.26828528      -4.26732272      -0.34374680      -0.26828528      -4.26732272
N       -0.63821330       0.08617720       0.01011910      -0.21236548      -2.36963128      -1.23033934      -0.21236548      -2.36963128      -1.23033934
H       -3.10852310       0.98924990      -0.76148840       1.03567257       0.80819441       1.96381157       1.03567257       0.80819441       1.96381157
H       -3.53488100      -0.53639510       0.51301300       0.28976031      -0.89914492       2.30781877       0.28976031      -0.89914492       2.30781877
H       -0.72828450       1.00739320       0.44302320       0.88889959       0.33033973       1.28087870       0.88889959       0.33033973       1.28087870
H        0.00345730      -0.71351640       0.46661790      -1.65822982       2.39845423      -0.05458838      -1.65822982       2.39845423      -0.05458838
6
Properties=species:S:1:pos:R:3:REF_forces:R:3:forces:R:3 REF_energy=-2566.58124213533 split=test T=0 traj_n=13_old energy=-2566.58124213533 pbc="F F F"
C       -2.49906190       0.28536390       0.33586420      -7.52924313       1.92876645       1.43793305      -7.52924313       1.92876645       1.43793305
N       -1.32998450       0.09726940       0.05671090      11.04860601      -5.86519444      -3.48951844      11.04860601      -5.86519444      -3.48951844
H       -2.74749420       1.38965100       0.14215750      -1.16731810      -0.36457377       0.07224528      -1.16731810      -0.36457377       0.07224528
H       -3.24830770      -0.54222170      -0.25439500       1.13223102       1.59882242       0.59449633       1.13223102       1.59882242       0.59449633
H       -0.51654990      -0.56099110      -0.42292890      -2.87553757       1.97746110       1.02774869      -2.87553757       1.97746110       1.02774869
H        0.33634810       0.48060310       0.58547080      -0.60687043       0.72449116       0.35601739      -0.60687043       0.72449116       0.35601739
6
Properties=species:S:1:pos:R:3:REF_forces:R:3:forces:R:3 REF_energy=-2566.260848361594 split=test T=5000 traj_n=5 energy=-2566.260848361594 pbc="F F F"
C       -2.74964810       0.49115640       0.25605700       3.91364709      -6.48741164      -3.41575395       3.91364709      -6.48741164      -3.41575395
N       -0.93232570       0.02798920       0.04213180      -0.39030521      -1.31854958      -2.29212445      -0.39030521      -1.31854958      -2.29212445
H       -3.34794400       1.18063830       0.66890750      -2.43690801       3.52927377       2.02532553      -2.43690801       3.52927377       2.02532553
H       -3.10021590      -0.93467100      -0.33206280       0.62189874       2.65530987       0.92665105       0.62189874       2.65530987       0.92665105
H       -0.52005070       0.14569950      -1.11103880      -1.41549812       0.62260954       4.47972007      -1.41549812       0.62260954       4.47972007
H       -0.50963990       0.20393460       1.01504460      -0.29296252       0.99886260      -1.72379671      -0.29296252       0.99886260      -1.72379671
6
Properties=species:S:1:pos:R:3:REF_forces:R:3:forces:R:3 REF_energy=-2567.920066222945 split=test T=0 traj_n=20_old energy=-2567.920066222945 pbc="F F F"
C       -3.13770910       0.27790160       0.20798440       0.33050397       2.39773041      -2.07562844       0.33050397       2.39773041      -2.07562844
N       -0.60743230       0.11447790      -0.02780040       1.24859531       1.96087511       4.67145167       1.24859531       1.96087511       4.67145167
H       -2.96744160       0.01107790       1.27282710      -0.54502239       0.38344746      -0.14712049      -0.54502239       0.38344746      -0.14712049
H       -3.41305900       1.17557020      -0.68559370       0.89835261      -2.61835283       2.63411333       0.89835261      -2.61835283       2.63411333
H       -1.06267380      -0.53697380       0.69297650      -0.32721805      -0.77816639      -1.97938469      -0.32721805      -0.77816639      -1.97938469
H       -0.06211310       0.91286210       0.67273460      -1.60603827      -1.34553398      -3.10347612      -1.60603827      -1.34553398      -3.10347612
6
Properties=species:S:1:pos:R:3:REF_forces:R:3:forces:R:3 REF_energy=-2566.4934687363184 split=test T=5000 traj_n=18 energy=-2566.4934687363184 pbc="F F F"
C       -2.79835080       0.31701680       0.08936980       5.51067302       7.20202837       6.73555376       5.51067302       7.20202837       6.73555376
N       -0.92207740       0.15015970       0.13294960       1.83012386       0.98616130       2.74171164       1.83012386       0.98616130       2.74171164
H       -2.66426070       1.08886230       1.23060050      -0.72723993      -2.49807991      -3.08673988      -0.72723993      -2.49807991      -3.08673988
H       -3.30674140      -0.33559720      -0.42432470      -3.30130051      -4.56173565      -3.09560258      -3.30130051      -4.56173565      -3.09560258
H       -1.02847420      -0.12516460      -0.86700860       0.44789654      -0.26483378       0.23317187       0.44789654      -0.26483378       0.23317187
H       -0.04237570       0.34468010       1.02658070      -3.76019814      -0.86356908      -3.52818964      -3.76019814      -0.86356908      -3.52818964
6
Properties=species:S:1:pos:R:3:REF_forces:R:3:forces:R:3 REF_energy=-2566.8088791812293 split=test T=5000 traj_n=18 energy=-2566.8088791812293 pbc="F F F"
C       -3.01849100       0.37019040       0.12162970      -3.65596267      -9.09193661      -5.44490070      -3.65596267      -9.09193661      -5.44490070
N       -0.64557440       0.08105460       0.11625770      -1.29362371      -3.22921922       2.05127099      -1.29362371      -3.22921922       2.05127099
H       -3.03455610       1.07306110       0.77308410       1.17223600       6.22989537       5.02470482       1.17223600       6.22989537       5.02470482
H       -3.89442300      -0.63920000      -0.24515530       3.62930074       2.71868325       0.52068365       3.62930074       2.71868325       0.52068365
H       -0.92595110       0.42412210      -0.77999210       0.19590949       2.16002013      -0.97557776       0.19590949       2.16002013      -0.97557776
H       -0.40730500       0.44184400       1.06609990      -0.04782679       1.21245526      -1.17618306      -0.04782679       1.21245526      -1.17618306
6
Properties=species:S:1:pos:R:3:REF_forces:R:3:forces:R:3 REF_energy=-2566.2389161125966 split=test T=0 traj_n=13_old energy=-2566.2389161125966 pbc="F F F"
C       -2.54205900       0.38033440       0.06923220      -0.25896045      -2.66572397       1.48161260      -0.25896045      -2.66572397       1.48161260
N       -1.11167510      -0.03487510       0.28050610      -2.82769582      -1.15469162      -4.83155160      -2.82769582      -1.15469162      -4.83155160
H       -2.69613180       0.63459890       1.14538890      -0.03331569       1.20091533       0.35569333      -0.03331569       1.20091533       0.35569333
H       -3.53052700      -0.03661460      -0.50595910       2.77815528       0.84434895      -0.04091433       2.77815528       0.84434895      -0.04091433
H       -1.05994690      -0.58369150      -0.91281940       0.20064757       1.46160407       3.04273781       0.20064757       1.46160407       3.04273781
H       -0.62779980       2.40283790       0.12883100       0.14093421       0.31372922      -0.00750397       0.14093421       0.31372922      -0.00750397
6
Properties=species:S:1:pos:R:3:REF_forces:R:3:forces:R:3 REF_energy=-2567.2951151442235 split=test T=0 traj_n=13_old energy=-2567.2951151442235 pbc="F F F"
C       -2.47386930       0.30604980       0.24431340      -4.92557906       3.32279098      -2.63943454      -4.92557906       3.32279098      -2.63943454
N       -1.22171410      -0.01104760       0.07046140       5.80394634      -0.75407916       0.02065013       5.80394634      -0.75407916       0.02065013
H       -3.06378970       0.62419520       1.13623530       0.16595289      -0.20314216       0.19437259       0.16595289      -0.20314216       0.19437259
H       -2.89662170       0.77489610      -0.85898210       0.47289121      -0.74109159       2.30826368       0.47289121      -0.74109159       2.30826368
H       -0.22485030      -0.04180550       0.37834180      -0.52747265       0.27186662      -0.18518110      -0.52747265       0.27186662      -0.18518110
H       -0.86124760       1.89791520      -0.21821280      -0.99033862      -1.89645720       0.30113220      -0.99033862      -1.89645720       0.30113220
6
Properties=species:S:1:pos:R:3:REF_forces:R:3:forces:R:3 REF_energy=-2566.7409360268844 split=test T=0 traj_n=13_old energy=-2566.7409360268844 pbc="F F F"
C       -2.50974070       0.41177820       0.30312940      -8.18820561      -1.22917299      -4.37096492      -8.18820561      -1.22917299      -4.37096492
N       -1.12014330       0.06527680      -0.04224250       2.25235040     -12.77029272       4.15412866       2.25235040     -12.77029272       4.15412866
H       -3.26640900       0.28019190       1.17048960       2.02985725       0.12332698      -0.17003704       2.02985725       0.12332698      -0.17003704
H       -2.90641220       0.16126050      -0.99375710      -0.22961028       1.08758927       2.90720786      -0.22961028       1.08758927       2.90720786
H       -0.75762610      -0.29114340       0.96656280       0.42865116       0.65240956      -2.46402847       0.42865116       0.65240956      -2.46402847
H       -1.04518740       0.93474820      -0.02500780       3.70609436      12.13769876      -0.05609587       3.70609436      12.13769876      -0.05609587
6
Properties=species:S:1:pos:R:3:REF_forces:R:3:forces:R:3 REF_energy=-2564.7936769265084 split=test T=5000 traj_n=5 energy=-2564.7936769265084 pbc="F F F"
C       -3.30001630       0.53309380       0.36140130       3.55968812      -0.41886122      -2.10050773       3.55968812      -0.41886122      -2.10050773
N       -0.49945020      -0.12180030      -0.06441790      -1.90500262       5.04351563      -0.85876816      -1.90500262       5.04351563      -0.85876816