6
Properties=species:S:1:pos:R:3:REF_forces:R:3:forces:R:3 REF_energy=-2571.9159399510677 split=val T=5000 traj_n=35 energy=-2571.9159399510677 pbc="F F F"
C       -2.04544550      -0.39446970       0.72965670      -0.75995886       0.01310599       0.73847472      -0.75995886       0.01310599       0.73847472
N       -1.25520110       0.32484290       0.07686540      -0.31086743      -1.91499491      -2.05921689      -0.31086743      -1.91499491      -2.05921689
H       -4.42292310       3.18720050      -2.51109600      -0.18372004       0.99764055      -0.09431013      -0.18372004       0.99764055      -0.09431013
H       -4.55749520       3.97006380      -2.57761150       0.18488074      -1.00240702       0.09520832       0.18488074      -1.00240702       0.09520832
H       -1.95217070       0.03137160      -0.94695740       2.24385337       1.05747465       2.13219678       2.24385337       1.05747465       2.13219678
H       -0.19421410       0.09699270       0.19490520      -1.17424445       0.84930398      -0.81239297      -1.17424445       0.84930398      -0.81239297
6
Properties=species:S:1:pos:R:3:REF_forces:R:3:forces:R:3 REF_energy=-2567.620301009246 split=val T=5000 traj_n=8 energy=-2567.620301009246 pbc="F F F"
C       -3.06962260       0.46201490       0.30602690       5.75009072       6.35274552       9.76427926       5.75009072       6.35274552       9.76427926
N       -0.56504970       0.10559900      -0.12534960      -3.85238037      -1.10787075       3.47382031      -3.85238037      -1.10787075       3.47382031
H       -3.28487810       0.74911550       1.40621100      -0.10372649      -0.37128784      -1.86302380      -0.10372649      -0.37128784      -1.86302380
H       -3.38090250      -0.03750770      -0.40006020      -4.36717959      -6.15218609      -8.27964129      -4.36717959      -6.15218609      -8.27964129
H       -0.92464170      -0.88664750       0.08778120       1.18505583      -1.15290146      -2.58224297       1.18505583      -1.15290146      -2.58224297
H       -1.18098690       0.03918560       0.88070770       1.38728689       2.43117255      -0.51347392       1.38728689       2.43117255      -0.51347392
6
Properties=species:S:1:pos:R:3:REF_forces:R:3:forces:R:3 REF_energy=-2572.345536845426 split=val T=5000 traj_n=35 energy=-2572.345536845426 pbc="F F F"
C       -2.12106280      -0.33337060       0.70133430      -0.18434400       0.33861519       0.89291622      -0.18434400       0.33861519       0.89291622
N       -1.23500130       0.31792640       0.06998810       1.08373169      -1.46271859       0.96603490       1.08373169      -1.46271859       0.96603490
H       -4.21698520       2.93070370      -2.37507630      -0.21888955       0.47917746       0.10099772      -0.21888955       0.47917746       0.10099772
H       -4.52408910       3.62840620      -2.20599040       0.22290453      -0.48584608      -0.09997339       0.22290453      -0.48584608      -0.09997339
H       -1.54569000       0.06854630      -0.85343840      -1.08326817       0.38309666      -2.68997631      -1.08326817       0.38309666      -2.68997631
H       -0.23225520       0.00500560       0.02741830       0.17986508       0.74775239       0.82999597       0.17986508       0.74775239       0.82999597
6
Properties=species:S:1:pos:R:3:REF_forces:R:3:forces:R:3 REF_energy=-2568.5562531122932 split=val T=0 traj_n=53_old energy=-2568.5562531122932 pbc="F F F"
C       -3.42351250       0.42215700       0.28568790       2.95271803       0.04405061      -2.28866287       2.95271803       0.04405061      -2.28866287
N       -0.45742930       0.10283620       0.05184220      -3.42237043       3.40260584       1.65005998      -3.42237043       3.40260584       1.65005998
H       -3.20120220      -0.35379790       1.16443700      -0.47436970       1.01297528      -1.65797332      -0.47436970       1.01297528      -1.65797332
H       -2.90777670       0.72517700      -1.01773820      -1.69536966      -1.19120298       3.91545622      -1.69536966      -1.19120298       3.91545622
H       -0.22355840      -0.79405910      -0.16246630       1.50630841      -4.02297513      -0.99222709       1.50630841      -4.02297513      -0.99222709
H        0.13222500       0.77326170      -0.39960210       1.13315251       0.75455523      -0.62667322       1.13315251       0.75455523      -0.62667322
6
Properties=species:S:1:pos:R:3:REF_forces:R:3:forces:R:3 REF_energy=-2574.759096046128 split=val T=0 traj_n=6_old energy=-2574.759096046128 pbc="F F F"
C       -2.39636550       0.34251410       0.18421000     -16.14442647       0.43226613       1.86132384     -16.14442647       0.43226613       1.86132384
N       -1.25975130       0.13619430       0.08930360      16.55029509      -3.88465039      -1.36990269      16.55029509      -3.88465039      -1.36990269
H       -2.87639290      -0.68195180      -0.35864440      -0.88914452       3.47310010       1.40580429      -0.88914452       3.47310010       1.40580429
H       -3.06037260       1.13443620       0.86517060       2.20369500      -1.88588240      -2.08323037       2.20369500      -1.88588240      -2.08323037
H       -0.28888210       0.60059260       0.57930590      -3.32104926      -1.10000543      -1.63670804      -3.32104926      -1.10000543      -1.63670804
H       -1.15575610      -0.81626420      -0.52578990       1.60190651       2.96655900       1.82284898       1.60190651       2.96655900       1.82284898
6
Properties=species:S:1:pos:R:3:REF_forces:R:3:forces:R:3 REF_energy=-2571.589482753165 split=val T=5000 traj_n=35 energy=-2571.589482753165 pbc="F F F"
C       -2.22720000      -0.24307490       0.66601320       1.91179830       1.14131772      -0.98933980       1.91179830       1.14131772      -0.98933980
N       -1.20288020       0.29788800       0.06861700      -0.56416996      -2.11830840      -1.73287450      -0.56416996      -2.11830840      -1.73287450
H       -3.95335790       2.61474420      -2.16444090      -1.13166019       1.10067988       1.04744807      -1.13166019       1.10067988       1.04744807
H       -4.44833160       3.09644750      -1.69748240       1.14285662      -1.11299819      -1.04381114       1.14285662      -1.11299819      -1.04381114
H       -1.08122190       0.16385550      -1.00728830      -2.47120648       1.07387881       0.02882598      -2.47120648       1.07387881       0.02882598
H       -0.23555210      -0.06966790      -0.09707470       1.11230364      -0.08448913       2.68980600       1.11230364      -0.08448913       2.68980600
6
Properties=species:S:1:pos:R:3:REF_forces:R:3:forces:R:3 REF_energy=-2571.3984759464197 split=val T=0 traj_n=6_old energy=-2571.3984759464197 pbc="F F F"
C       -2.36084150       0.38197700       0.20443580     -11.19468325      -4.05680843      -6.67085276     -11.19468325      -4.05680843      -6.67085276
N       -1.25080250       0.06360690       0.05108990      12.35069292       4.40814472       2.08245405      12.35069292       4.40814472       2.08245405
H       -2.95274190      -0.33620390      -0.57071690      -0.46052277       1.34654005       1.78449804      -0.46052277       1.34654005       1.78449804
H       -2.93780090       0.71485200       0.88364140      -4.02665412       5.09997089       5.31513532      -4.02665412       5.09997089       5.31513532
H       -0.62849300       1.24603570       0.64884290       0.21208070      -4.51861721      -1.22470374       0.21208070      -4.51861721      -1.22470374
H       -1.43664880      -0.90806610      -0.09848870       3.11850684      -2.27909996      -1.28669654       3.11850684      -2.27909996      -1.28669654
6
Properties=species:S:1:pos:R:3:REF_forces:R:3:forces:R:3 REF_energy=-2570.0816171591327 split=val T=0 traj_n=85_old energy=-2570.0816171591327 pbc="F F F"
C       -3.06349700       0.41155800       0.32295300       2.52726162       0.55636105      -4.00314344       2.52726162       0.55636105      -4.00314344
N       -0.67031380       0.04453080      -0.02790120      -3.09302561       1.56197984       2.59492046      -3.09302561       1.56197984       2.59492046
H       -3.07462840       1.09450730      -0.62370940       0.26505448       0.29126122       1.93973123       0.26505448       0.29126122       1.93973123
H       -3.61126700      -0.47263390       0.01520560      -0.50125069      -1.44447744       1.20733193      -0.50125069      -1.44447744       1.20733193
H       -0.56891230       1.12148020       0.05334460       0.81509962      -1.73987027      -0.31561044       0.81509962      -1.73987027      -0.31561044
H       -0.26903000      -0.54632150       0.78053640      -0.01317896       0.77467185      -1.42328106      -0.01317896       0.77467185      -1.42328106
6
Properties=species:S:1:pos:R:3:REF_forces:R:3:forces:R:3 REF_energy=-2569.3571778699147 split=val T=0 traj_n=6_old energy=-2569.3571778699147 pbc="F F F"
C       -2.98058680       0.37182160       0.21694230       0.38721794      -0.49910551      -1.77917987       0.38721794      -0.49910551      -1.77917987
N       -0.68078310       0.13054910      -0.04944300      -4.69498740      -5.33067568       0.29272233      -4.69498740      -5.33067568       0.29272233
H       -3.38965110       0.09933320       1.26721720       0.38721665       0.41593063      -1.23116539       0.38721665       0.41593063      -1.23116539
H       -3.66917160       0.44857100      -0.83134940       1.97129271      -0.09384589       2.79873980       1.97129271      -0.09384589       2.79873980
H       -0.85048660      -0.77311750       0.85230580       0.34439292       1.79265265      -3.22884235       0.34439292       1.79265265      -3.22884235
H       -0.36384260       0.61528500       0.71452840       1.60496329       3.71507486       3.14766284       1.60496329       3.71507486       3.14766284
6
Properties=species:S:1:pos:R:3:REF_forces:R:3:forces:R:3 REF_energy=-2569.2788892758877 split=val T=0 traj_n=6_old energy=-2569.2788892758877 pbc="F F F"
C       -3.02515500       0.34847150       0.22524040       5.00641543      -1.26686135       2.88560118       5.00641543      -1.26686135       2.88560118
N       -0.63810480       0.09760110      -0.07490660      -3.18157333      -0.32905089       5.40505600      -3.18157333      -0.32905089       5.40505600
H       -3.57323100       0.05798360       1.10248370      -0.26638878      -0.60495033       1.24006860      -0.26638878      -0.60495033       1.24006860
H       -3.50235050       0.70423630      -0.56766070      -2.19949490       1.85812914      -4.61310953      -2.19949490       1.85812914      -4.61310953
H       -0.84828850      -0.45386060       0.95809200       0.41055980      -0.75120945      -2.92753176       0.41055980      -0.75120945      -2.92753176
H       -0.43062140       0.77516770       0.77437160       0.23044393       1.09388055      -1.98797274       0.23044393       1.09388055      -1.98797274
6
Properties=species:S:1:pos:R:3:REF_forces:R:3:forces:R:3 REF_energy=-2572.255626540923 split=val T=5000 traj_n=35 energy=-2572.255626540923 pbc="F F F"
C       -2.07037270      -0.37416120       0.71970190      -0.64401768       0.05368196       0.92252237      -0.64401768       0.05368196       0.92252237
N       -1.24852950       0.32344030       0.07537250       0.01733320      -2.00592043      -2.09626494       0.01733320      -2.00592043      -2.09626494
H       -4.35366630       3.09965160      -2.46573410      -0.16005746       0.58470999      -0.00222328      -0.16005746       0.58470999      -0.00222328
H       -4.54697800       3.85825340      -2.45375840       0.16194542      -0.58989236       0.00300480       0.16194542      -0.58989236       0.00300480
H       -1.82345550       0.03725770      -0.92136830       1.55232890       1.08385222       1.53641238       1.55232890       1.08385222       1.53641238
H       -0.20257220       0.06095320       0.13967440      -0.92763949       0.87348300      -0.36338756      -0.92763949       0.87348300      -0.36338756
6
Properties=species:S:1:pos:R:3:REF_forces:R:3:forces:R:3 REF_energy=-2571.270167203688 split=val T=5000 traj_n=35 energy=-2571.270167203688 pbc="F F F"
C       -1.48736060      -0.82955300       0.96024220      -0.03827360       3.78070037      -2.89501214      -0.03827360       3.78070037      -2.89501214
N       -1.49969250       0.23321720       0.13628170      -3.56147324      -0.77696404       1.46168388      -3.56147324      -0.77696404       1.46168388
H       -5.56703270       6.30760230      -4.48159540       0.63574001      -1.76327291      -0.22075277       0.63574001      -1.76327291      -0.22075277
H       -5.28766810       5.53018550      -4.58142200      -0.63544567       1.76240609       0.22064458      -0.63544567       1.76240609       0.22064458
H       -2.37008100       0.97495930      -0.20489870       0.13643298      -3.35855893       1.27337231       0.13643298      -3.35855893       1.27337231
H       -1.05610170       1.09534680      -0.15098090       3.46304492       0.35544969       0.16028346       3.46304492       0.35544969       0.16028346
6
Properties=species:S:1:pos:R:3:REF_forces:R:3:forces:R:3 REF_energy=-2576.166822980992 split=val T=5000 traj_n=12 energy=-2576.166822980992 pbc="F F F"
C       -2.45131500       0.25956450       0.19825730      -4.04908643       1.55111292      -4.07201055      -4.04908643       1.55111292      -4.07201055
N       -1.22406660       0.15695610       0.07736870       5.79580314       2.01191460       3.51428285       5.79580314       2.01191460       3.51428285
H       -2.63674270       0.95686180       0.92876700      -1.78565612       1.57480759       2.59612158      -1.78565612       1.57480759       2.59612158
H       -3.16999680       0.25937870      -0.73525400       1.12363752      -1.47396655       2.04477993       1.12363752      -1.47396655       2.04477993
H       -0.66559610      -0.36449720      -0.50445160       1.15347158      -2.05152049      -2.99787190       1.15347158      -2.05152049      -2.99787190
H       -0.50659430       0.70990130       0.75148240      -2.23758512      -1.61479787      -1.08545561      -2.23758512      -1.61479787      -1.08545561
6
Properties=species:S:1:pos:R:3:REF_forces:R:3:forces:R:3 REF_energy=-2572.0948697898557 split=val T=5000 traj_n=35 energy=-2572.0948697898557 pbc="F F F"
C       -2.05786590      -0.38431830       0.72462050      -0.70881370       0.02598594       0.83922675      -0.70881370       0.02598594       0.83922675
N       -1.25185190       0.32425640       0.07624240      -0.16648208      -1.97436790      -2.15145758      -0.16648208      -1.97436790      -2.15145758
H       -4.38819340       3.14299010      -2.48839010      -0.17681005       0.77672976      -0.03800230      -0.17681005       0.77672976      -0.03800230
H       -4.55233840       3.91459750      -2.51570990       0.17831157      -0.78168602       0.03882412       0.17831157      -0.78168602       0.03882412
H       -1.88929900       0.03342920      -0.93558970       1.94866150       1.08798095       1.91247959       1.94866150       1.08798095       1.91247959
H       -0.19760790       0.07829370       0.16770120      -1.07489084       0.86542511      -0.60111651      -1.07489084       0.86542511      -0.60111651
6
Properties=species:S:1:pos:R:3:REF_forces:R:3:forces:R:3 REF_energy=-2568.0916357071524 split=val T=0 traj_n=53_old energy=-2568.0916357071524 pbc="F F F"
C       -3.49557030       0.36061660       0.27294840       1.16990792       1.95984724      -1.14676393       1.16990792       1.95984724      -1.14676393
N       -0.39087820       0.11595170      -0.01783280      -1.45746506       3.03953185      -1.69473208      -1.45746506       3.03953185      -1.69473208
H       -3.75993790      -0.36467020       1.20318810       0.64828782       1.63888036      -1.58091098       0.64828782       1.63888036      -1.58091098
H       -3.11117240       1.55701390      -0.49245270      -1.13278829      -3.59302525       2.61859235      -1.13278829      -3.59302525       2.61859235
H        0.00977590      -0.65262690       0.37311950       0.87524626      -4.39416743       2.64293427       0.87524626      -4.39416743       2.64293427
H        0.52518740       0.36868930      -0.42491950      -0.10305347       1.34890963      -0.83897679      -0.10305347       1.34890963      -0.83897679
6
Properties=species:S:1:pos:R:3:REF_forces:R:3:forces:R:3 REF_energy=-2569.5929109765566 split=val T=0 traj_n=2_old energy=-2569.5929109765566 pbc="F F F"
C       -3.58797870       0.57267500      -0.04399910       1.23428809       1.05390632       0.83825261       1.23428809       1.05390632       0.83825261
N       -0.43528300       0.19390700      -0.04207050       1.39131021      -0.05627050      -0.64999359       1.39131021      -0.05627050      -0.64999359
H       -3.37820670       1.08869980       0.97113400      -0.38663286      -0.96459282      -1.07160451      -0.38663286      -0.96459282      -1.07160451
H       -3.43988210      -0.29990860      -0.70058460      -0.14989301      -0.21914954       0.33378269      -0.14989301      -0.21914954       0.33378269
H       -0.00743150      -0.09554590      -0.99294280      -0.62503384       0.36094512       1.29881477      -0.62503384       0.36094512       1.29881477
H        0.44925470       0.33199690       0.57109780      -1.46403644      -0.17505337      -0.74918702      -1.46403644      -0.17505337      -0.74918702
6
Properties=species:S:1:pos:R:3:REF_forces:R:3:forces:R:3 REF_energy=-2571.438403614637 split=val T=0 traj_n=6_old energy=-2571.438403614637 pbc="F F F"
C       -2.32763450       0.35631180       0.19251500     -33.46847495       2.40703883       1.51502368     -33.46847495       2.40703883       1.51502368
N       -1.30191670       0.11249320       0.07520520      32.50579575      -5.08523564      -1.52885133      32.50579575      -5.08523564      -1.52885133
H       -2.88116200      -0.60167500      -0.48494140      -1.10169377       3.13931766       1.97421066      -1.10169377       3.13931766       1.97421066
H       -2.99911020       0.91970980       0.85459790       0.51917601       1.14897040      -0.37623295       0.51917601       1.14897040      -0.37623295
H       -0.39268330       0.93313320       0.64378840      -2.24183433      -3.36694927      -1.91679082      -2.24183433      -3.36694927      -1.91679082
H       -1.35239710      -0.87340720      -0.35104220       3.78695232       1.75966823       0.33342053       3.78695232       1.75966823       0.33342053
6
Properties=species:S:1:pos:R:3:REF_forces:R:3:forces:R:3 REF_energy=-2572.043861007958 split=val T=5000 traj_n=35 energy=-2572.043861007958 pbc="F F F"
C       -1.84681650      -0.57318800       0.82553040       0.44691314       0.17629279       0.13009366       0.44691314       0.17629279       0.13009366
N       -1.33621620       0.30376180       0.06316570      -2.03554479      -2.41561295       1.62270252      -2.03554479      -2.41561295       1.62270252
H       -5.02335880       4.24913270      -3.00678200       0.21496712       0.24629962      -0.33535030       0.21496712       0.24629962      -0.33535030
H       -4.65515750       4.65167920      -3.56232470      -0.21441711      -0.24862508       0.33746693      -0.21441711      -0.24862508       0.33746693
H       -2.29712600       0.24185820      -0.56917170       2.30589888       1.48136130      -0.24175679       2.30589888       1.48136130      -0.24175679
H       -0.35552810       0.62686210       0.34368750      -0.71778305       0.76031064      -1.51311273      -0.71778305       0.76031064      -1.51311273
6
Properties=species:S:1:pos:R:3:REF_forces:R:3:forces:R:3 REF_energy=-2573.5846061942293 split=val T=5000 traj_n=8 energy=-2573.5846061942293 pbc="F F F"
C       -2.56187010       0.37770750       0.25612810       8.41562731      -2.18284772      -1.41731640       8.41562731      -2.18284772      -1.41731640
N       -1.13091350       0.10187570       0.01060940      -3.64119935      10.15653970      11.49731718      -3.64119935      10.15653970      11.49731718
H       -3.21790900       0.75895600       0.99931800       0.12102590       1.13222660       1.10095139       0.12102590       1.13222660       1.10095139
H       -2.71345590      -0.08535700      -0.62040240      -3.96661943      -2.03408985      -3.63247852      -3.96661943      -2.03408985      -3.63247852
H       -0.76736530      -0.53727920      -0.54609580       1.98998874      -4.13954999      -4.42077023       1.98998874      -4.13954999      -4.42077023
H       -0.25785150       0.78387970       0.84636070      -2.90434946      -2.94267690      -3.11815213      -2.90434946      -2.94267690      -3.11815213
6
Properties=species:S:1:pos:R:3:REF_forces:R:3:forces:R:3 REF_energy=-2575.1369023438756 split=val T=0 traj_n=85_old energy=-2575.1369023438756 pbc="F F F"
C       -2.61031090       0.39043110       0.15758520       8.10963109      -3.23076599      -0.41334209       8.10963109      -3.23076599      -0.41334209
N       -1.04515450       0.09845670       0.09811870      -9.88406851       0.20519791      -3.34330704      -9.88406851       0.20519791      -3.34330704
H       -2.96801160       0.76863830       1.06252900      -0.57945347       1.44885993       1.82466042      -0.57945347       1.44885993       1.82466042
H       -3.17514100      -0.33680060      -0.38343150      -0.76185238      -0.16609842      -1.49155439      -0.76185238      -0.16609842      -1.49155439
H       -0.81540970      -0.22542300      -0.90694150       0.72609866       0.50805141       2.13484661       0.72609866       0.50805141       2.13484661
H       -0.64019800       0.58766120       0.83849130       2.38493933       1.23708926       1.29033347       2.38493933       1.23708926       1.29033347
6
Properties=species:S:1:pos:R:3:REF_forces:R:3:forces:R:3 REF_energy=-2573.8158898906236 split=val T=5000 traj_n=28 energy=-2573.8158898906236 pbc="F F F"
C       -2.65158360       0.34747150       0.13510450       8.41605730      -0.02109698       2.91421586       8.41605730      -0.02109698       2.91421586
N       -1.07335580       0.11050910       0.15740500      -5.31574893      -1.63382172      -7.00826858      -5.31574893      -1.63382172      -7.00826858
H       -2.52473740       0.87342240       1.31303480      -2.45730298      -1.15690678      -3.28613604      -2.45730298      -1.15690678      -3.28613604
H       -3.15473740      -0.16184740      -0.80699450       0.34254825       0.94429587       2.18793979       0.34254825       0.94429587       2.18793979
H       -0.66038430      -0.27595780      -0.89181610      -1.43831671       0.77101579       3.49190653      -1.43831671       0.77101579       3.49190653
H       -0.34805860       0.72462840       0.46635240       0.45322829       1.09623815       1.70033976       0.45322829       1.09623815       1.70033976
6
Properties=species:S:1:pos:R:3:REF_forces:R:3:forces:R:3 REF_energy=-2569.68127404565 split=val T=5000 traj_n=35 energy=-2569.68127404565 pbc="F F F"
C       -2.76751740       0.35677850       0.08929350       5.07622006      -0.71467397       4.55378590       5.07622006      -0.71467397       4.55378590
N       -0.93111200       0.22304840       0.11639030      -4.32172593      -4.48145834      -4.11429964      -4.32172593      -4.48145834      -4.11429964
H       -2.30632190       1.05495380       1.02212880      -3.81293111      -1.10189766      -1.85823307      -3.81293111      -1.10189766      -1.85823307
H       -3.10280850      -0.86323800       0.00903230       0.58931386       3.40880559      -0.69449348       0.58931386       3.40880559      -0.69449348
H       -0.98530720      -0.39159670      -0.91514880       1.65675092       1.52734868       3.64926798       1.65675092       1.52734868       3.64926798
H       -0.87876020      -0.31271850       1.08393120       0.81237723       1.36190532      -1.53601427       0.81237723       1.36190532      -1.53601427
6
Properties=species:S:1:pos:R:3:REF_forces:R:3:forces:R:3 REF_energy=-2571.866076594533 split=val T=5000 traj_n=35 energy=-2571.866076594533 pbc="F F F"
C       -1.85782570      -0.56321840       0.82000400       0.34081338       0.28334994       0.03184646       0.34081338       0.28334994       0.03184646
N       -1.32943710       0.30696870       0.06386690      -2.56939815      -2.51875312       1.31856917      -2.56939815      -2.51875312       1.31856917
H       -4.99093500       4.17876450      -2.97317670       0.18224299       0.24952208      -0.29862846       0.18224299       0.24952208      -0.29862846
H       -4.64768700       4.62244860      -3.51135670      -0.18179675      -0.25193650       0.30076520      -0.18179675      -0.25193650       0.30076520
H       -2.31821770       0.21547000      -0.60921390       2.79043277       1.40278011       0.21611445       2.79043277       1.40278011       0.21611445
H       -0.33944660       0.58598110       0.35536570      -0.56226966       0.83507272      -1.56877450      -0.56226966       0.83507272      -1.56877450
6
Properties=species:S:1:pos:R:3:REF_forces:R:3:forces:R:3 REF_energy=-2570.329455933363 split=val T=0 traj_n=85_old energy=-2570.329455933363 pbc="F F F"
C       -2.97300400       0.40002850       0.23629930       2.88518867       2.97143335       1.61337275       2.88518867       2.97143335       1.61337275
N       -0.77583020      -0.00789620       0.03486690       1.05059865       3.76256628       0.86579607       1.05059865       3.76256628       0.86579607
H       -3.36603250       1.49635260       0.32837440       0.70392424      -1.61902234      -0.66757583       0.70392424      -1.61902234      -0.66757583
H       -3.30541280      -0.50592680      -0.16324740      -0.99521035      -2.03213293      -0.94088622      -0.99521035      -2.03213293      -0.94088622
H       -0.41378160       0.84788140      -0.61155790      -1.08592016      -1.76091043       1.03164514      -1.08592016      -1.76091043       1.03164514
H       -0.00601040       0.24700070       0.89996340      -2.55868030      -1.32189376      -1.90230204      -2.55868030      -1.32189376      -1.90230204
6
Properties=species:S:1:pos:R:3:REF_forces:R:3:forces:R:3 REF_energy=-2571.982203085542 split=val T=5000 traj_n=35 energy=-2571.982203085542 pbc="F F F"
C       -2.14658780      -0.31274440       0.69288080       0.22457678       0.56958326       0.55584411       0.22457678       0.56958326       0.55584411
N       -1.22768300       0.31406760       0.06744890       0.99336692      -0.95793845       3.64835128       0.99336692      -0.95793845       3.64835128
H       -4.14979660       2.84875210      -2.32933040      -0.42472185       0.76617672       0.26883678      -0.42472185       0.76617672       0.26883678
H       -4.51147090       3.51091510      -2.08252620       0.43024674      -0.77402866      -0.26741100       0.43024674      -0.77402866      -0.26741100
H       -1.41282860       0.08962450      -0.83690330      -2.16993281      -0.14119883      -5.70712481      -2.16993281      -0.14119883      -5.70712481
H       -0.24665580      -0.01579570      -0.02210560       0.94644634       0.53749872       1.50152796       0.94644634       0.53749872       1.50152796
6
Properties=species:S:1:pos:R:3:REF_forces:R:3:forces:R:3 REF_energy=-2572.3484337262616 split=val T=5000 traj_n=35 energy=-2572.3484337262616 pbc="F F F"
C       -1.80765970      -0.60795870       0.84508960       0.73295616      -0.17093641       0.33572773       0.73295616      -0.17093641       0.33572773
N       -1.36107240       0.29045210       0.06256360       2.72978738      -1.79910072       3.89997442       2.72978738      -1.79910072       3.89997442
H       -5.13463070       4.49750480      -3.12772450       0.61147703       0.34975794      -0.83211559       0.61147703       0.34975794      -0.83211559
H       -4.68351000       4.75187900      -3.73736550      -0.61056634      -0.35185683       0.83413874      -0.61056634      -0.35185683       0.83413874
H       -2.20524500       0.35377410      -0.44001560      -2.07021046       1.90521263      -3.04739516      -2.07021046       1.90521263      -3.04739516
H       -0.42162490       0.77793080       0.28545680      -1.39344464       0.06693487      -1.19112503      -1.39344464       0.06693487      -1.19112503
6
Properties=species:S:1:pos:R:3:REF_forces:R:3:forces:R:3 REF_energy=-2571.4136576210312 split=val T=0 traj_n=6_old energy=-2571.4136576210312 pbc="F F F"
C       -2.63016660       0.39398070       0.17887300       0.92702417       0.30879805       0.98459051       0.92702417       0.30879805       0.98459051
N       -0.99816520       0.01914690       0.03139530      -8.31442693      -8.16495466      -3.94686636      -8.31442693      -8.16495466      -3.94686636
H       -3.48029730       0.38241990      -0.66208210       1.82204628      -0.94355328       1.40370257       1.82204628      -0.94355328       1.40370257
H       -3.05993080       1.01394130       1.36461100       1.81958167      -1.30187551      -3.71372328       1.81958167      -1.30187551      -3.71372328
H       -0.91658230       0.78976490       0.47069060       3.68841602       6.74458239       6.09517434       3.68841602       6.74458239       6.09517434
H       -0.84142780      -1.08537220       0.28878050       0.05740184       3.35672970      -0.82302561       0.05740184       3.35672970      -0.82302561
6
Properties=species:S:1:pos:R:3:REF_forces:R:3:forces:R:3 REF_energy=-2571.8661131345802 split=val T=5000 traj_n=35 energy=-2571.8661131345802 pbc="F F F"
C       -2.72887840       0.37684310       0.14777850       4.79299344       6.38061232       1.19545826       4.79299344       6.38061232       1.19545826
N       -1.02818750       0.13205510       0.06006930       0.47838885       0.62122336      -1.63876394       0.47838885       0.62122336      -1.63876394