6
Properties=species:S:1:pos:R:3:REF_forces:R:3:forces:R:3 REF_energy=-2567.454940297 split=train T=0 traj_n=92_old energy=-2567.454940297 pbc="F F F"
C       -3.31717130       0.45134460       0.23858170      -2.52041421      -3.11622113       0.74468512      -2.52041421      -3.11622113       0.74468512
N       -0.38536250       0.11917350      -0.00816530      -1.21076584       1.20363031      -2.19953614      -1.21076584       1.20363031      -2.19953614
H       -3.35501520       0.69946460       1.28550690       1.79341936       2.23898648       1.20800663       1.79341936       2.23898648       1.20800663
H       -4.03285840      -0.38063490      -0.14333940       1.49078157       0.90258871      -2.02636168       1.49078157       0.90258871      -2.02636168
H       -0.56318910      -0.70981110      -0.63057010       0.31016665      -0.06973768       1.12623557       0.31016665      -0.06973768       1.12623557
H       -0.36661950       0.00019900       0.99049450       0.13797075      -1.15947022       1.14692097       0.13797075      -1.15947022       1.14692097
6
Properties=species:S:1:pos:R:3:REF_forces:R:3:forces:R:3 REF_energy=-2564.7497916825805 split=train T=5000 traj_n=91 energy=-2564.7497916825805 pbc="F F F"
C       -4.67407890       0.49685280       0.10994590       1.36573154       0.17794714       0.62996023       1.36573154       0.17794714       0.62996023
N        0.61979170      -0.38745880       0.06869850       8.49777365       0.41316489       1.73392984       8.49777365       0.41316489       1.73392984
H       -3.81603700       1.08435070       0.64218110      -1.98962848      -0.72138989      -1.05507273      -1.98962848      -0.72138989      -1.05507273
H       -5.66704830       0.38751530      -0.38654250       0.64072286       0.55364057       0.43322207       0.64072286       0.55364057       0.43322207
H        1.90913130      -0.44262430      -0.32386020      -3.99236296      -0.46972202      -2.31971732      -3.99236296      -0.46972202      -2.31971732
H        1.30541760      -0.21289600       0.98852310      -4.52375027       0.04655769       0.57777243      -4.52375027       0.04655769       0.57777243
6
Properties=species:S:1:pos:R:3:REF_forces:R:3:forces:R:3 REF_energy=-2567.2894358031926 split=train T=5000 traj_n=97 energy=-2567.2894358031926 pbc="F F F"
C       -4.53220150       0.64410440       0.56258470      -0.63863683       1.27139600       0.39088551      -0.63863683       1.27139600       0.39088551
N        0.74882570      -0.15052990      -0.27913080      -1.85459681       0.66331170       0.23025861      -1.85459681       0.66331170       0.23025861
H       -5.14357430      -0.24237750       0.58502690      -0.08945295      -1.39073037      -0.20587478      -0.08945295      -1.39073037      -0.20587478
H       -4.93107340       1.65531820       0.84084630       0.71451497       0.11903226      -0.17848322       0.71451497       0.11903226      -0.17848322
H        0.41181680       0.84002630      -0.09018750       0.95904526      -1.84054912      -0.39427212       0.95904526      -1.84054912      -0.39427212
H        0.29894180      -1.08282520      -0.43530000       0.90729584       1.17759609       0.15759583       0.90729584       1.17759609       0.15759583
6
Properties=species:S:1:pos:R:3:REF_forces:R:3:forces:R:3 REF_energy=-2567.6018503264213 split=train T=5000 traj_n=40 energy=-2567.6018503264213 pbc="F F F"
C       -3.44836760       0.03867370       0.36882670      -0.33917152       1.22397802      -0.45193950      -0.33917152       1.22397802      -0.45193950
N       -0.36055040       0.29759520      -0.08980400      -1.05052933       0.46328989       1.11532741      -1.05052933       0.46328989       1.11532741
H       -2.85491630      -0.69938000      -0.33588310      -1.76288596       1.37345904       1.50900056      -1.76288596       1.37345904       1.50900056
H       -4.31052710       0.93006300       0.84152280       2.62717382      -2.67646892      -1.34475339       2.62717382      -2.67646892      -1.34475339
H       -0.33474110      -0.77974800      -0.17077070       0.32159952       1.56761961       0.70823387       0.32159952       1.56761961       0.70823387
H       -0.30757130       0.99652300       0.77087350       0.20550387      -1.95215609      -1.53722372       0.20550387      -1.95215609      -1.53722372
6
Properties=species:S:1:pos:R:3:REF_forces:R:3:forces:R:3 REF_energy=-2565.9325291006817 split=train T=5000 traj_n=77 energy=-2565.9325291006817 pbc="F F F"
C       -3.16986520       0.55385280       0.07888550       1.42882996       0.22666827      -1.10448054       1.42882996       0.22666827      -1.10448054
N       -0.70259370      -0.04993610       0.27912870       3.99389616       2.88612224      -4.07176197       3.99389616       2.88612224      -4.07176197
H       -2.69797630      -0.22933310       0.66536960      -0.48579712      -0.80286358       1.14754143      -0.48579712      -0.80286358       1.14754143
H       -2.57643640       1.33740060      -0.45177710      -0.80405560       0.62454152       0.04537864      -0.80405560       0.62454152       0.04537864
H       -0.10405430      -0.74658390      -0.16446980      -0.93325555      -3.38428889       1.22444169      -0.93325555      -3.38428889       1.22444169
H       -0.04318030       0.68158440      -0.46302070      -3.20008846       0.45024169       2.75916928      -3.20008846       0.45024169       2.75916928
6
Properties=species:S:1:pos:R:3:REF_forces:R:3:forces:R:3 REF_energy=-2564.8662209395798 split=train T=5000 traj_n=15 energy=-2564.8662209395798 pbc="F F F"
C       -2.47587150       0.12070830       0.10772320       6.01356875       1.40465465      -7.87467210       6.01356875       1.40465465      -7.87467210
N       -1.09729820       0.29288780      -0.19284100      -6.08096632      -1.98602390       3.90945511      -6.08096632      -1.98602390       3.90945511
H       -3.26922660       0.60868760       5.18183920       0.00141971      -0.00087443      -0.00580087       0.00141971      -0.00087443      -0.00580087
H       -2.58664870       0.83955550      -0.68194210      -2.67738629       2.48277531      -1.67542273      -2.67738629       2.48277531      -1.67542273
H       -0.14584570       0.12782270      -0.12860690       4.10713084       0.25316390      -1.61974030       4.10713084       0.25316390      -1.61974030
H       -2.48233020      -0.26348940       0.99725110      -1.36809916      -2.14768732       7.26554789      -1.36809916      -2.14768732       7.26554789
6
Properties=species:S:1:pos:R:3:REF_forces:R:3:forces:R:3 REF_energy=-2567.1910303587256 split=train T=0 traj_n=91_old energy=-2567.1910303587256 pbc="F F F"
C       -3.14972730       0.28009390       0.26552700       2.88739098       4.13456698       2.44440535       2.88739098       4.13456698       2.44440535
N       -0.61551970       0.05627210       0.08456940      -1.79398783      -2.16772074      -0.06744210      -1.79398783      -2.16772074      -0.06744210
H       -3.23688510       0.52245510       1.38377660      -1.05812735      -2.94969143       0.30223850      -1.05812735      -2.94969143       0.30223850
H       -2.72493570       1.23157080      -0.20070680      -0.52566979      -1.22128983      -2.84364216      -0.52566979      -1.22128983      -2.84364216
H       -0.71582740      -0.59114090      -0.77802730       0.22013129       0.47968731       0.92953778       0.22013129       0.47968731       0.92953778
H       -0.70141890       0.94867750      -0.37345010       0.27024461       1.72423349      -0.76512107       0.27024461       1.72423349      -0.76512107
6
Properties=species:S:1:pos:R:3:REF_forces:R:3:forces:R:3 REF_energy=-2565.7383858867524 split=train T=5000 traj_n=63 energy=-2565.7383858867524 pbc="F F F"
C       -2.70927040       0.45258990       0.22003570       0.39149183      -0.29912823      -0.17245264       0.39149183      -0.29912823      -0.17245264
N       -1.29266350      -0.12208330       0.28595740      -2.37515016       1.32780246       0.68435274      -2.37515016       1.32780246       0.68435274
H       -2.62525130       1.69727020       0.54224530      -0.30874766      -2.39898146      -0.34340968      -0.30874766      -2.39898146      -0.34340968
H       -3.54784300      -0.25205490      -0.07213770       0.32012648       1.19378792       0.17619740       0.32012648       1.19378792       0.17619740
H        3.87508210       1.25734940      -3.60494100      -0.00111504      -0.00016424       0.00086590      -0.00111504      -0.00016424       0.00086590
H       -0.59538620       0.60326450       0.43049960       1.97491149       0.17746208      -0.34473354       1.97491149       0.17746208      -0.34473354
6
Properties=species:S:1:pos:R:3:REF_forces:R:3:forces:R:3 REF_energy=-2566.2980845437014 split=train T=5000 traj_n=66 energy=-2566.2980845437014 pbc="F F F"
C       -2.42575810       0.23217200       0.20928730     -18.70545259       4.74966273       3.65051985     -18.70545259       4.74966273       3.65051985
N       -1.22417000       0.21598780       0.06533540      20.69052698      -1.85492987      -0.80351176      20.69052698      -1.85492987      -0.80351176
H       -2.78716630       1.29420580       0.79314040      -0.57118208      -1.51959577      -0.13970728      -0.57118208      -1.51959577      -0.13970728
H       -3.02511930      -0.00773140      -0.62952250      -1.43587036      -1.23453970      -0.86343883      -1.43587036      -1.23453970      -0.86343883
H       -0.91674780      -0.40657680      -0.70451670       1.11835987       0.14656528       0.19176677       1.11835987       0.14656528       0.19176677
H       -0.55282970       0.18769810       1.01730710      -0.97669357      -0.29126647      -2.04743439      -0.97669357      -0.29126647      -2.04743439
6
Properties=species:S:1:pos:R:3:REF_forces:R:3:forces:R:3 REF_energy=-2564.8313588352007 split=train T=5000 traj_n=61 energy=-2564.8313588352007 pbc="F F F"
C       -2.52446260       0.26723130       0.21268290     -17.22315504       8.48041346      -1.99352946     -17.22315504       8.48041346      -1.99352946
N       -1.44429770      -0.10114020       0.06047860      20.60114890      -7.87067732      -2.23381368      20.60114890      -7.87067732      -2.23381368
H       -3.26994060       0.60995640       0.88893080      -0.65997122      -0.67822827       3.21821011      -0.65997122      -0.67822827       3.21821011
H       -3.16321950       0.96029000      -0.64781690       2.00717225      -2.02978619       0.79162976       2.00717225      -2.02978619       0.79162976
H       -0.29265720      -0.66146410       0.11377580      -4.72555900       2.09162523       0.21732452      -4.72555900       2.09162523       0.21732452
H        3.94481570       4.43452910       0.19735520      -0.00085782      -0.00078208      -0.00001316      -0.00085782      -0.00078208      -0.00001316
6
Properties=species:S:1:pos:R:3:REF_forces:R:3:forces:R:3 REF_energy=-2568.2122982115297 split=train T=0 traj_n=69_old energy=-2568.2122982115297 pbc="F F F"
C       -2.71371270       0.37830080       0.19495210       0.75847256       0.08152038      -2.60939906       0.75847256       0.08152038      -2.60939906
N       -0.97940970       0.06610850       0.10583180       3.37285576      -0.76250996      -1.37389031       3.37285576      -0.76250996      -1.37389031
H       -3.00840130       0.91591220       1.01066760      -0.35468175       1.63724658       3.09290693      -0.35468175       1.63724658       3.09290693
H       -3.16091410      -0.13422460      -0.65095900       0.31031227      -1.03439581      -0.78101460       0.31031227      -1.03439581      -0.78101460
H       -0.57893740      -0.20955790      -0.90845460      -2.05888377       0.73807121       1.95502313      -2.05888377       0.73807121       1.95502313
H       -0.45823780       0.90220330       0.60435370      -2.02804298      -0.65995420      -0.28354015      -2.02804298      -0.65995420      -0.28354015
6
Properties=species:S:1:pos:R:3:REF_forces:R:3:forces:R:3 REF_energy=-2565.5507633837883 split=train T=5000 traj_n=98 energy=-2565.5507633837883 pbc="F F F"
C       -5.06591880       0.61383660       0.23000390       4.92783593      -2.91917264       2.60373189       4.92783593      -2.91917264       2.60373189
N        1.03760050       0.01084950      -0.03922710       0.23015175      -0.35740861       1.44618126       0.23015175      -0.35740861       1.44618126
H       -3.73344610       0.07988760       0.54772220      -1.88674475       2.02663864      -2.33815105      -1.88674475       2.02663864      -2.33815105
H       -5.74548110       0.26322990       1.00088560      -3.01959238       0.90532395      -0.26095701      -3.01959238       0.90532395      -0.26095701
H        1.43035720      -0.32294400       0.97819220      -0.80729982       0.02275550      -3.12016628      -0.80729982       0.02275550      -3.12016628
H        1.01801970      -0.73259670      -0.81669670       0.54442939       0.31061932       1.68065416       0.54442939       0.31061932       1.68065416
6
Properties=species:S:1:pos:R:3:REF_forces:R:3:forces:R:3 REF_energy=-2562.8055197386097 split=train T=5000 traj_n=90 energy=-2562.8055197386097 pbc="F F F"
C       -2.44258680      -0.35402080      -0.17245670       2.48041987       4.11307801      -1.95544705       2.48041987       4.11307801      -1.95544705
N       -1.08236900       0.35687630       0.00564400      -2.93668201      -2.53703022      -1.97753375      -2.93668201      -2.53703022      -1.97753375
H       -4.28453040      10.47799920       6.73232130       0.00001167      -0.00004566      -0.00002761       0.00001167      -0.00004566      -0.00002761
H       -2.42009080      -0.68431480       0.82017520      -0.81107862      -2.36312655       2.86017261      -0.81107862      -2.36312655       2.86017261
H       -0.42081980      -0.35521820       0.35466520       1.25551080       0.71943426       1.20452006       1.25551080       0.71943426       1.20452006
H        1.23387240       0.51039550      -0.90711290       0.01192946       0.06486796      -0.13193082       0.01192946       0.06486796      -0.13193082
6
Properties=species:S:1:pos:R:3:REF_forces:R:3:forces:R:3 REF_energy=-2561.132247434803 split=train T=5000 traj_n=72 energy=-2561.132247434803 pbc="F F F"
C       -1.99498590       0.54614820       0.48686200      -8.88273431       6.71898845       4.49683519      -8.88273431       6.71898845       4.49683519
N       -1.05702980       0.01287170       0.02290500       7.82577609      -1.97132151      -4.45088314       7.82577609      -1.97132151      -4.45088314
H       -8.70069370      -0.93371460       1.13509730       0.00131533       0.00021201      -0.00015349       0.00131533       0.00021201      -0.00015349
H       -4.28531160       1.04245820      -3.24770220       0.00761175      -0.00208270       0.01012516       0.00761175      -0.00208270       0.01012516
H       -1.56919030      -0.79735760       0.40876920       0.82832568      -3.49276564      -0.25375335       0.82832568      -3.49276564      -0.25375335
H       -0.44132990       0.59543270      -0.73739360       0.21941020      -1.25316303       0.19807693       0.21941020      -1.25316303       0.19807693
6
Properties=species:S:1:pos:R:3:REF_forces:R:3:forces:R:3 REF_energy=-2568.568329326142 split=train T=0 traj_n=40_old energy=-2568.568329326142 pbc="F F F"
C       -2.94504050       0.14207340      -0.12295500      -0.63934712      -0.52321100       2.11704686      -0.63934712      -0.52321100       2.11704686
N       -0.69579590       0.15922000       0.05664610       0.56954686       5.12842452       1.83630644       0.56954686       5.12842452       1.83630644
H       -3.33458400       0.04165880       0.97019850       0.83476630       0.21090385      -1.61676126       0.83476630       0.21090385      -1.61676126
H       -3.03400280       0.16614210      -1.22678190       0.54486195       0.10867087       0.01973923       0.54486195       0.10867087       0.01973923
H       -0.54343690      -0.76713910      -0.18915080      -0.21812166      -3.41426708      -0.25272768      -0.21812166      -3.41426708      -0.25272768
H       -0.55374610       0.60541270       1.07397140      -1.09169825      -1.51058760      -2.10352970      -1.09169825      -1.51058760      -2.10352970
6
Properties=species:S:1:pos:R:3:REF_forces:R:3:forces:R:3 REF_energy=-2568.0786436492085 split=train T=0 traj_n=81_old energy=-2568.0786436492085 pbc="F F F"
C       -2.81501290       0.38576560       0.20430290      -0.69615930       0.52324087       2.16104651      -0.69615930       0.52324087       2.16104651
N       -0.88900630       0.12449340       0.03723580      -0.08325320       1.80026564      -0.68294712      -0.08325320       1.80026564      -0.68294712
H       -3.09619340       0.76863020       1.27068730       0.88964213      -0.53387732      -1.50852079       0.88964213      -0.53387732      -1.50852079
H       -3.12309300      -0.15201980      -0.69787700       0.25675321      -0.23498445      -0.46038711       0.25675321      -0.23498445      -0.46038711
H       -0.69622570      -0.64666730      -0.51745720      -0.63040446      -2.68064023      -1.91368925      -0.63040446      -2.68064023      -1.91368925
H       -0.26465140       0.41022620       0.74263410       0.26349968       1.12583808       2.40434257       0.26349968       1.12583808       2.40434257
6
Properties=species:S:1:pos:R:3:REF_forces:R:3:forces:R:3 REF_energy=-2567.967161354323 split=train T=5000 traj_n=29 energy=-2567.967161354323 pbc="F F F"
C       -2.51301960       0.37218990       0.16528210      -8.89415824      -2.49032885      -1.65597136      -8.89415824      -2.49032885      -1.65597136
N       -1.18514980       0.20950550       0.07351950      14.68169595      -1.59975233      -2.74138650      14.68169595      -1.59975233      -2.74138650
H       -2.72174980       0.52691940       1.19249480      -1.90330441       0.47368538       1.56131768      -1.90330441       0.47368538       1.56131768
H       -2.95096920      -0.44846730      -0.60111540      -0.71963866       2.11626334       1.68722163      -0.71963866       2.11626334       1.68722163
H       -0.67950190      -0.56904800      -0.45681280      -2.15374520       0.20272826      -1.39143259      -2.15374520       0.20272826      -1.39143259
H       -0.43224760      -0.01894850       0.75208070      -1.00986594       1.30378533       2.53994801      -1.00986594       1.30378533       2.53994801
6
Properties=species:S:1:pos:R:3:REF_forces:R:3:forces:R:3 REF_energy=-2563.1911162972033 split=train T=5000 traj_n=81 energy=-2563.1911162972033 pbc="F F F"
C       -4.67967750       0.37689810       0.38719230       0.99020394     -11.87191558      -5.44447107       0.99020394     -11.87191558      -5.44447107
N        0.69706380      -0.10640090       0.04866940       6.67710481       5.59690161      -1.68473902       6.67710481       5.59690161      -1.68473902
H       -5.09645550      -0.74506710      -0.59857900       1.05573206       3.79717209       3.02791226       1.05573206       3.79717209       3.02791226
H       -4.84727110       1.25418390       0.69201610      -2.01162849       8.07382087       2.41268996      -2.01162849       8.07382087       2.41268996
H        1.80919690       0.04594790       0.36457190      -2.35150542      -3.53676838       1.80369662      -2.35150542      -3.53676838       1.80369662
H        1.10217840       0.90465770      -0.57075880      -4.35985847      -2.05970997      -0.11486584      -4.35985847      -2.05970997      -0.11486584
6
Properties=species:S:1:pos:R:3:REF_forces:R:3:forces:R:3 REF_energy=-2565.473232662183 split=train T=5000 traj_n=15 energy=-2565.473232662183 pbc="F F F"
C       -2.50091680       0.11503940       0.08204600       2.30630789       2.76147278      -0.47332887       2.30630789       2.76147278      -0.47332887
N       -1.09713090       0.29204030      -0.14779920       0.72722429       1.41643544      -3.46639337       0.72722429       1.41643544      -3.46639337
H       -3.20894820       0.62591060       4.83928650       0.00271390      -0.00101276      -0.00804689       0.00271390      -0.00101276      -0.00804689
H       -2.88731990       1.04029000      -0.63995740      -0.98412894      -2.38647535       2.04066226      -0.98412894      -2.38647535       2.04066226
H       -0.13392180      -0.00711530      -0.21111040       0.90423283      -0.92817731       1.12204539       0.90423283      -0.92817731       1.12204539
H       -1.95689200      -0.26909240       1.04845020      -2.95652440      -0.86236843       0.78539854      -2.95652440      -0.86236843       0.78539854
6
Properties=species:S:1:pos:R:3:REF_forces:R:3:forces:R:3 REF_energy=-2566.447183103239 split=train T=5000 traj_n=81 energy=-2566.447183103239 pbc="F F F"
C       -4.63635320       0.35247190       0.30914550       4.35007543       0.10488281       0.66623798       4.35007543       0.10488281       0.66623798
N        0.61717410      -0.02258840       0.04230920      -0.49001877       1.31443643      -1.17226053      -0.49001877       1.31443643      -1.17226053
H       -3.70514810      -0.57958880       0.00057430      -2.94305871       2.30511896       0.67306410      -2.94305871       2.30511896       0.67306410
H       -4.27526880       1.43626680       0.86962120      -1.36601451      -2.42393360      -1.32887137      -1.36601451      -2.42393360      -1.32887137
H        1.17117000      -0.69606640       0.62571890      -0.61896331       1.18182586      -1.06157376      -0.61896331       1.18182586      -1.06157376
H        0.39689330       0.77471690      -0.68608170       1.06820217      -2.48230757       2.22336723       1.06820217      -2.48230757       2.22336723
6
Properties=species:S:1:pos:R:3:REF_forces:R:3:forces:R:3 REF_energy=-2566.5969470763503 split=train T=5000 traj_n=42 energy=-2566.5969470763503 pbc="F F F"
C       -2.79394740       0.06276160       0.11868690       1.65835930       0.06029140       0.03254513       1.65835930       0.06029140       0.03254513
N       -1.32538170       0.11712390      -0.36540870      -1.99121377       0.08615875      -1.10751172      -1.99121377       0.08615875      -1.10751172
H       -3.00752550      -0.43695580       1.09980910       0.18976825       0.72356865      -0.28780077       0.18976825       0.72356865      -0.28780077
H       -3.33997690       0.90265470      -0.42177400       0.02130349      -0.66362605       0.06795647       0.02130349      -0.66362605       0.06795647
H       -0.76754730       0.89841330      -0.83416990       0.12252655      -0.20551472       1.29528737       0.12252655      -0.20551472       1.29528737
H        2.59053130       4.79161430       3.83197010      -0.00048902      -0.00076639      -0.00049211      -0.00048902      -0.00076639      -0.00049211
6
Properties=species:S:1:pos:R:3:REF_forces:R:3:forces:R:3 REF_energy=-2565.8975976930383 split=train T=0 traj_n=26_old energy=-2565.8975976930383 pbc="F F F"
C       -2.65381050       0.43405000       0.17096980       0.37931169      11.33424001       0.00171858       0.37931169      11.33424001       0.00171858
N       -1.05706490       0.05914020       0.11843850       6.38635365      -0.17730277      -3.27922666       6.38635365      -0.17730277      -3.27922666
H       -2.90880520       1.51197500       0.38563830       0.20907894      -1.25984764      -0.00474266       0.20907894      -1.25984764      -0.00474266
H       -2.76196920      -0.47615890       0.15123450      -3.50078337     -11.00855496       0.47010671      -3.50078337     -11.00855496       0.47010671
H       -0.85168940       0.37740900      -1.09805700      -0.59286064      -0.79090816       4.15330163      -0.59286064      -0.79090816       4.15330163
H       -0.36398170      -0.63933200       0.75296620      -2.88153369       1.90167844      -1.41961944      -2.88153369       1.90167844      -1.41961944
6
Properties=species:S:1:pos:R:3:REF_forces:R:3:forces:R:3 REF_energy=-2566.5770528541234 split=train T=5000 traj_n=19 energy=-2566.5770528541234 pbc="F F F"
C       -3.34745320       0.43011080       0.36485750       1.02856697       0.32820345       0.79618833       1.02856697       0.32820345       0.79618833
N       -0.36599750      -0.05462130      -0.03199670      -2.41849474       7.82166351      -1.57032343      -2.41849474       7.82166351      -1.57032343
H       -3.94729620       1.30456250       0.69916390       0.31724371      -0.24816074      -0.30073188       0.31724371      -0.24816074      -0.30073188
H       -3.21226810      -0.22882240      -0.45957720      -0.47073133      -0.50450329      -0.79214188      -0.47073133      -0.50450329      -0.79214188
H       -0.45747140       0.74959440      -0.89021350       0.84382769      -4.24261827      -0.67865183       0.84382769      -4.24261827      -0.67865183
H       -0.55400630       0.85601470       0.57600020       0.69966834      -3.15464503       2.54605767       0.69966834      -3.15464503       2.54605767
6
Properties=species:S:1:pos:R:3:REF_forces:R:3:forces:R:3 REF_energy=-2568.538841776957 split=train T=0 traj_n=71_old energy=-2568.538841776957 pbc="F F F"
C       -2.53394710       0.36457110       0.18298500      -7.38872076      -0.37829708      -0.18134984      -7.38872076      -0.37829708      -0.18134984
N       -1.13613410       0.12727100       0.07016270       8.20542747      -0.31087889      -0.39595866       8.20542747      -0.31087889      -0.39595866
H       -2.93916480       0.79262770       1.28945430       0.40808285      -0.93224130      -2.68229854       0.40808285      -0.93224130      -2.68229854
H       -3.30884480      -0.29118250      -0.71227610       2.03655559       1.63495881       3.07257418       2.03655559       1.63495881       3.07257418
H       -0.50028330      -0.42579680      -0.60953780      -2.10375153       0.88075228       0.75282873      -2.10375153       0.88075228       0.75282873
H       -0.49350850       0.64133610       0.75878880      -1.26977184      -1.14458610      -0.56033295      -1.26977184      -1.14458610      -0.56033295
6
Properties=species:S:1:pos:R:3:REF_forces:R:3:forces:R:3 REF_energy=-2565.309865344375 split=train T=0 traj_n=61_old energy=-2565.309865344375 pbc="F F F"
C       -2.34338360       0.43322110       0.24910120       4.59839207       2.00824183       4.23359210       4.59839207       2.00824183       4.23359210
N       -1.11321820       0.28019250       0.26388200      -0.82072206       3.94197201       1.52601859      -0.82072206       3.94197201       1.52601859
H       -3.10714520       0.13233620       0.94626030      -1.73123162       0.26173827       0.22161193      -1.73123162       0.26173827       0.22161193
H       -4.19747290      -2.05081780      -3.21268360       0.01098848       0.00836190       0.01327661       0.01098848       0.00836190       0.01327661
H       -1.65988120      -0.44868600      -0.59145770       0.02834107      -6.75093980      -7.23475759       0.02834107      -6.75093980      -7.23475759
H       -0.06832540       0.13001900      -0.15438970      -2.08579207       0.53033501       1.24131487      -2.08579207       0.53033501       1.24131487
6
Properties=species:S:1:pos:R:3:REF_forces:R:3:forces:R:3 REF_energy=-2566.4985476573006 split=train T=0 traj_n=32_old energy=-2566.4985476573006 pbc="F F F"
C       -2.48845270       0.84928590      -0.38487230       6.00498677      13.20833813      12.25993179       6.00498677      13.20833813      12.25993179
N       -1.37689240      -0.20354310       0.36353280       1.10499975       1.08741464       3.41784996       1.10499975       1.08741464       3.41784996
H       -2.66953570       1.57436720       0.64706440       0.04940740      -1.91080190      -3.22480273       0.04940740      -1.91080190      -3.22480273
H       -2.82235100       0.22382720      -0.89445820      -6.49483462     -11.06581559      -9.44424359      -6.49483462     -11.06581559      -9.44424359
H       -1.20400680      -1.13061700      -0.06299750       0.04164205       0.51375916      -0.31145570       0.04164205       0.51375916      -0.31145570
H       -0.97982960       0.43612010       1.22187870      -0.70581122      -1.83253263      -2.69743611      -0.70581122      -1.83253263      -2.69743611
6
Properties=species:S:1:pos:R:3:REF_forces:R:3:forces:R:3 REF_energy=-2569.1071011007916 split=train T=0 traj_n=8_old energy=-2569.1071011007916 pbc="F F F"
C       -2.56048880       0.32740790       0.16201540       6.76233828      -0.49554803      -1.68775056       6.76233828      -0.49554803      -1.68775056
N       -1.09314870       0.18580260       0.06777450      -4.41119266       2.57159546       1.54301832      -4.41119266       2.57159546       1.54301832
H       -2.94232560       0.90938790       1.17854570      -0.33981810      -0.11470458       0.66720795      -0.33981810      -0.11470458       0.66720795
H       -3.17864630      -0.27441190      -0.45171070      -2.99303890      -0.76970885      -0.67103648      -2.99303890      -0.76970885      -0.67103648
H       -0.84033160      -0.51530960      -0.64174050      -0.09445673      -1.00544195      -0.30240649      -0.09445673      -1.00544195      -0.30240649
H       -0.56550320       0.22052880       0.92717640       1.07462648      -0.18572540       0.45313079       1.07462648      -0.18572540       0.45313079
6
Properties=species:S:1:pos:R:3:REF_forces:R:3:forces:R:3 REF_energy=-2564.2560495546713 split=train T=5000 traj_n=90 energy=-2564.2560495546713 pbc="F F F"
C       -2.61715580      -0.05210520      -0.01135720      -1.57386698       0.36563846      -1.87923507      -1.57386698       0.36563846      -1.87923507
N       -0.95712000       0.30833650      -0.03412600       0.65087949      -5.90194836       2.40643030       0.65087949      -5.90194836       2.40643030