6
Properties=species:S:1:pos:R:3:REF_forces:R:3:forces:R:3 REF_energy=-2568.431010219308 split=test T=5000 traj_n=5 energy=-2568.431010219308 pbc="F F F"
C       -3.66453370       0.58248110       0.32786420      -1.31454298      -4.19998850       4.14870471      -1.31454298      -4.19998850       4.14870471
N       -0.19172000      -0.10589910      -0.13513550      -1.11825878       2.43465634      -0.36228703      -1.11825878       2.43465634      -0.36228703
H       -3.06345250       1.20463150      -0.24375550       1.78879204       1.72179258      -1.65574515       1.78879204       1.72179258      -1.65574515
H       -3.57537500      -0.27624130       1.27048400      -0.18839369       2.33201255      -2.60880555      -0.18839369       2.33201255      -2.60880555
H       -0.16552830       1.05792370      -0.09717260       0.62793008      -3.47477018       0.66647632       0.62793008      -3.47477018       0.66647632
H        0.17680580      -0.63296580       0.69891850       0.20358917       1.18547755      -0.18701872       0.20358917       1.18547755      -0.18701872
6
Properties=species:S:1:pos:R:3:REF_forces:R:3:forces:R:3 REF_energy=-2575.1592944378403 split=test T=5000 traj_n=13 energy=-2575.1592944378403 pbc="F F F"
C       -2.47126180       0.34363470       0.18751480       5.39363897      -7.57290041     -11.82931522       5.39363897      -7.57290041     -11.82931522
N       -1.13996490       0.17238260       0.06844590      -4.82558145       1.65984833       3.28216230      -4.82558145       1.65984833       3.28216230
H       -2.88779350       0.68898330       0.89797210      -5.62204386       5.88279730      10.57314231      -5.62204386       5.88279730      10.57314231
H       -3.21741750      -0.27398910      -0.56444760       2.01284287       1.85724139       1.32503858       2.01284287       1.85724139       1.32503858
H       -1.12511990      -0.50717850      -0.66818230       2.55380178      -0.92834335      -0.71183377       2.55380178      -0.92834335      -0.71183377
H       -0.67970400       0.43847900       1.02708900       0.48702493      -0.89809586      -2.63927534       0.48702493      -0.89809586      -2.63927534
6
Properties=species:S:1:pos:R:3:REF_forces:R:3:forces:R:3 REF_energy=-2571.6560911381407 split=test T=0 traj_n=13_old energy=-2571.6560911381407 pbc="F F F"
C       -2.66226260       0.37818650       0.24618990       2.30263949      -1.78749276      -4.62263264       2.30263949      -1.78749276      -4.62263264
N       -0.96113970       0.03801330       0.09700810      -4.76167112       4.50265488       0.16842383      -4.76167112       4.50265488       0.16842383
H       -3.33415810       1.13595400       0.83662250       1.79967259      -1.22010614       0.26724742       1.79967259      -1.22010614       0.26724742
H       -3.64526710      -0.30074840      -0.87539280       2.92213064       1.44308447       2.99552048       2.92213064       1.44308447       2.99552048
H       -0.66754930       0.07087740      -0.96972660      -1.06586092      -0.72581672       2.01412364      -1.06586092      -0.72581672       2.01412364
H       -0.44607180       0.89412960       0.60940360      -1.19685129      -2.21252813      -0.82271086      -1.19685129      -2.21252813      -0.82271086
6
Properties=species:S:1:pos:R:3:REF_forces:R:3:forces:R:3 REF_energy=-2570.0715620952806 split=test T=0 traj_n=11_old energy=-2570.0715620952806 pbc="F F F"
C       -3.13467850       0.43295370       0.21705910       1.02090328      -2.13407564       0.59005989       1.02090328      -2.13407564       0.59005989
N       -0.61465830       0.12927820       0.03494040      -2.73948101       0.40871375       2.12334031      -2.73948101       0.40871375       2.12334031
H       -3.20026350       0.66858500      -0.88693720      -0.15204431      -0.16566606       0.82713500      -0.15204431      -0.16566606       0.82713500
H       -3.51153700      -0.47443240       0.96055150       1.01526732       2.14269403      -1.92249625       1.01526732       2.14269403      -1.92249625
H       -0.42920960       0.87721430       0.82151130       0.51576673      -1.68172610      -1.74826127       0.51576673      -1.68172610      -1.74826127
H       -0.36149230      -0.90669290      -0.02173060       0.33944462       1.42997405       0.13023379       0.33944462       1.42997405       0.13023379
6
Properties=species:S:1:pos:R:3:REF_forces:R:3:forces:R:3 REF_energy=-2569.239615639701 split=test T=0 traj_n=11_old energy=-2569.239615639701 pbc="F F F"
C       -3.19619470       0.10055440       0.30901610       1.81495898       3.49377449       1.42183039       1.81495898       3.49377449       1.42183039
N       -0.67433020       0.34915060       0.01504340       3.65250315      -1.59816360       0.53690572       3.65250315      -1.59816360       0.53690572
H       -2.77089840       0.97184420       1.16697400      -1.43736607      -2.87299640      -2.37336504      -1.43736607      -2.87299640      -2.37336504
H       -3.82804110       0.30750900      -0.65436370       1.09585953      -0.48112188       1.04459558       1.09585953      -0.48112188       1.04459558
H       -0.02866530       0.63800410      -0.77500210      -1.48758147       0.53339077      -0.50129342      -1.48758147       0.53339077      -0.50129342
H        0.32471680      -0.15104290       0.47521950      -3.63938502       0.92500359      -0.12867663      -3.63938502       0.92500359      -0.12867663
6
Properties=species:S:1:pos:R:3:REF_forces:R:3:forces:R:3 REF_energy=-2568.188793460399 split=test T=5000 traj_n=18 energy=-2568.188793460399 pbc="F F F"
C       -3.35961200       0.38131120       0.16807490       0.45161137      -3.65932552      -1.21653514       0.45161137      -3.65932552      -1.21653514
N       -0.39752730       0.01003710       0.07956690      -0.19634987       0.25151860      -6.95359376      -0.19634987       0.25151860      -6.95359376
H       -3.19073850       1.46941870       0.41579910      -0.31768250      -0.47545440      -0.03411669      -0.31768250      -0.47545440      -0.03411669
H       -3.60752220      -0.86156770      -0.17056790       0.70181423       3.96322356       1.14809196       0.70181423       3.96322356       1.14809196
H       -0.36502600       0.99651490      -0.42147610       0.27226606      -1.87568047       0.34795426       0.27226606      -1.87568047       0.34795426
H       -0.57305810       0.33022790       0.92826770      -0.91160902       1.79564886       6.70816847      -0.91160902       1.79564886       6.70816847
6
Properties=species:S:1:pos:R:3:REF_forces:R:3:forces:R:3 REF_energy=-2571.064435293606 split=test T=0 traj_n=11_old energy=-2571.064435293606 pbc="F F F"
C       -2.84254590       0.35138560       0.24440690       4.90712471       2.65042966      -1.35870430       4.90712471       2.65042966      -1.35870430
N       -0.85826440       0.02238220       0.07383190      -1.93533362       0.84741294      -2.30311417      -1.93533362       0.84741294      -2.30311417
H       -3.05609550       1.46061230       0.37974660      -0.33701622      -1.01954147       0.64261648      -0.33701622      -1.01954147       0.64261648
H       -3.46473050      -0.28004730      -0.36765870      -0.80341087      -1.31507180       0.10206612      -0.80341087      -1.31507180       0.10206612
H       -0.62719900       0.70038500      -0.87479440      -1.20401582      -1.49620084       2.70056854      -1.20401582      -1.49620084       2.70056854
H       -0.34177550       0.53464270       0.82258440      -0.63009655       0.33235054       0.21886862      -0.63009655       0.33235054       0.21886862
6
Properties=species:S:1:pos:R:3:REF_forces:R:3:forces:R:3 REF_energy=-2571.9939412248314 split=test T=0 traj_n=13_old energy=-2571.9939412248314 pbc="F F F"
C       -2.47519200       0.35348380       0.28887230      -4.04435699      -2.22513754      -5.11286862      -4.04435699      -2.22513754      -5.11286862
N       -1.23397230       0.06954560       0.13300710     -11.34020163     -18.97057299      -6.72639389     -11.34020163     -18.97057299      -6.72639389
H       -3.18700190       1.35147300       0.40046550       2.42147846      -2.14303614       0.77616329       2.42147846      -2.14303614       0.77616329
H       -2.85710320      -0.48411960      -0.48763270      -1.58672224       1.58775716       2.42257976      -1.58672224       1.58775716       2.42257976
H       -0.77196560      -0.96345060      -0.72054510      -1.58571174       3.86670028       3.59219731      -1.58571174       3.86670028       3.59219731
H       -0.77438040       0.68328770       0.28933250      16.13545157      17.88446360       5.04832616      16.13545157      17.88446360       5.04832616
6
Properties=species:S:1:pos:R:3:REF_forces:R:3:forces:R:3 REF_energy=-2570.303181686793 split=test T=0 traj_n=11_old energy=-2570.303181686793 pbc="F F F"
C       -3.06441090       0.38955000       0.12199730       1.26923921      -0.33120557       2.20669455       1.26923921      -0.33120557       2.20669455
N       -0.71901050       0.21361400       0.15770040      -0.01904509      -2.77295466      -0.58935556      -0.01904509      -2.77295466      -0.58935556
H       -3.42747020      -0.12493800      -0.85394640       0.97545856       0.49618531       1.27174681       0.97545856       0.49618531       1.27174681
H       -3.08207340       0.30696920       1.33697760       0.03001496       0.12033108      -2.89189041       0.03001496       0.12033108      -2.89189041
H        0.24450250      -0.19318310       0.57175980      -2.08980443       1.73110049       0.07641592      -2.08980443       1.73110049       0.07641592
H       -0.68588650      -0.36139980      -0.72776470      -0.16581801       0.75642545      -0.07352955      -0.16581801       0.75642545      -0.07352955
6
Properties=species:S:1:pos:R:3:REF_forces:R:3:forces:R:3 REF_energy=-2571.6525328058724 split=test T=0 traj_n=24_old energy=-2571.6525328058724 pbc="F F F"
C       -2.92971250       0.36001860       0.22071150       3.39067788      -1.14399953      -1.86959189       3.39067788      -1.14399953      -1.86959189
N       -0.78269440       0.08335600       0.05568190      -7.09864173       2.01702426       3.60837371      -7.09864173       2.01702426       3.60837371
H       -3.14858060       1.07442650       0.99770840       0.33560432       0.41711401       0.88024994       0.33560432       0.41711401       0.88024994
H       -3.58100900      -0.07378470      -0.60365290       1.15928171       0.04828676       0.61787969       1.15928171       0.04828676       0.61787969
H       -0.48378040      -0.24426530      -0.78762590       1.55596413      -1.50199225      -3.50124380       1.55596413      -1.50199225      -3.50124380
H       -0.35463640       0.65717180       0.77424740       0.65565887       0.16356506       0.26465431       0.65565887       0.16356506       0.26465431
6
Properties=species:S:1:pos:R:3:REF_forces:R:3:forces:R:3 REF_energy=-2568.7260318117033 split=test T=0 traj_n=20_old energy=-2568.7260318117033 pbc="F F F"
C       -3.13770910       0.27790160       0.20798440      -0.33672825       2.31445350      -3.26942444      -0.33672825       2.31445350      -3.26942444
N       -0.60743230       0.11447790      -0.02780040      -1.23771568       2.47109232       3.28583445      -1.23771568       2.47109232       3.28583445
H       -2.96744160       0.01107790       1.27282710       0.12071778       0.24277211      -0.05269661       0.12071778       0.24277211      -0.05269661
H       -3.41305900       1.17557020      -0.68559370       1.00516627      -2.50190062       2.69216916       1.00516627      -2.50190062       2.69216916
H       -1.06267380      -0.53697380       0.69297650       1.56773480       0.12824597      -0.36722838       1.56773480       0.12824597      -0.36722838
H       -0.06211310       0.91286210       0.67273460      -1.11849069      -2.65449951      -2.28853935      -1.11849069      -2.65449951      -2.28853935
6
Properties=species:S:1:pos:R:3:REF_forces:R:3:forces:R:3 REF_energy=-2570.2997664071754 split=test T=0 traj_n=13_old energy=-2570.2997664071754 pbc="F F F"
C       -2.61020900       0.21910770       0.30388480       3.74977869       2.09185478      -0.73312688       3.74977869       2.09185478      -0.73312688
N       -1.34976720       0.10215610      -0.04283380       1.25200680      -3.40837360       1.14902398       1.25200680      -3.40837360       1.14902398
H       -2.42096220       1.37494140       0.33326670      -1.89597861      -0.36546697       0.27791735      -1.89597861      -0.36546697       0.27791735
H       -3.60137050      -0.29821190       0.52387370       1.16957363      -0.09882288      -0.35618708       1.16957363      -0.09882288      -0.35618708
H       -0.17681360      -0.45538980       0.02117480      -4.33315129       1.82176665      -0.34376634      -4.33315129       1.82176665      -0.34376634
H        1.36721110       0.55905110       1.02191600       0.06297409      -0.04099295       0.00550838       0.06297409      -0.04099295       0.00550838
6
Properties=species:S:1:pos:R:3:REF_forces:R:3:forces:R:3 REF_energy=-2567.972022909039 split=test T=0 traj_n=24_old energy=-2567.972022909039 pbc="F F F"
C       -4.32780500       0.58287980       0.27253410      -0.55970580      -1.70749622      -1.75633417      -0.55970580      -1.70749622      -1.75633417
N        0.28134120       0.40545890      -0.65542450      -2.70083583       1.79642241      -1.71000711      -2.70083583       1.79642241      -1.71000711
H       -3.89896630       1.35073720       0.89956460       0.56647053       0.79584370       0.56724094       0.56647053       0.79584370       0.56724094
H       -4.20155600      -0.05509900      -0.69026800      -0.02859396       0.86497537       1.20892308      -0.02859396       0.86497537       1.20892308
H       -0.47707380       0.89853240      -1.34564470       1.65631409      -2.15100548      -1.13896258       1.65631409      -2.15100548      -1.13896258
H       -0.22694830       1.18081480      -0.17618450       1.06647290       0.40120751       2.82918279       1.06647290       0.40120751       2.82918279
6
Properties=species:S:1:pos:R:3:REF_forces:R:3:forces:R:3 REF_energy=-2571.1179046247576 split=test T=0 traj_n=13_old energy=-2571.1179046247576 pbc="F F F"
C       -2.49284420       0.28889600       0.14343660       2.13847012       2.01930750       0.77773742       2.13847012       2.01930750       0.77773742
N       -1.21106460      -0.02927780       0.19053440      -2.98176209       0.59624195      -1.77923689      -2.98176209       0.59624195      -1.77923689
H       -2.71742250       0.84320660       1.14979940      -0.17569979      -1.10916036      -0.84696988      -0.17569979      -1.10916036      -0.84696988
H       -3.37461700       0.62742820      -0.67784780       2.34368746      -1.65054849       1.15936511       2.34368746      -1.65054849       1.15936511
H       -0.27203620      -0.19888940      -0.31029770      -1.49001749      -0.07952767       0.64698705      -1.49001749      -0.07952767       0.64698705
H       -0.64301390       2.33521590      -0.06086020       0.16414546       0.22375963       0.04105939       0.16414546       0.22375963       0.04105939
6
Properties=species:S:1:pos:R:3:REF_forces:R:3:forces:R:3 REF_energy=-2571.2526821850884 split=test T=0 traj_n=13_old energy=-2571.2526821850884 pbc="F F F"
C       -2.47386930       0.30604980       0.24431340       1.26032093       1.97299550      -3.69799780       1.26032093       1.97299550      -3.69799780
N       -1.22171410      -0.01104760       0.07046140      -1.50029424       1.57054650       0.56052300      -1.50029424       1.57054650       0.56052300
H       -3.06378970       0.62419520       1.13623530       0.09371281      -1.29231867       0.38657788       0.09371281      -1.29231867       0.38657788
H       -2.89662170       0.77489610      -0.85898210       0.56294488      -1.43738999       2.83876529       0.56294488      -1.43738999       2.83876529
H       -0.22485030      -0.04180550       0.37834180      -0.79405750      -0.56365255       0.48259533      -0.79405750      -0.56365255       0.48259533
H       -0.86124760       1.89791520      -0.21821280       0.38706315      -0.25024266      -0.57041244       0.38706315      -0.25024266      -0.57041244
6
Properties=species:S:1:pos:R:3:REF_forces:R:3:forces:R:3 REF_energy=-2568.63549638207 split=test T=0 traj_n=13_old energy=-2568.63549638207 pbc="F F F"
C       -2.54205900       0.38033440       0.06923220       1.12445051      -1.87130019       3.74151403       1.12445051      -1.87130019       3.74151403
N       -1.11167510      -0.03487510       0.28050610      -3.39682425      -0.66559196      -7.15013096      -3.39682425      -0.66559196      -7.15013096
H       -2.69613180       0.63459890       1.14538890      -1.30846849       1.51387651      -0.57813270      -1.30846849       1.51387651      -0.57813270
H       -3.53052700      -0.03661460      -0.50595910       2.66503779       0.77930569       0.32522519       2.66503779       0.77930569       0.32522519
H       -1.05994690      -0.58369150      -0.91281940       1.36421062       1.77506687       3.64462102       1.36421062       1.77506687       3.64462102
H       -0.62779980       2.40283790       0.12883100      -0.44858596      -1.53131579       0.01692629      -0.44858596      -1.53131579       0.01692629
6
Properties=species:S:1:pos:R:3:REF_forces:R:3:forces:R:3 REF_energy=-2568.378538735533 split=test T=0 traj_n=24_old energy=-2568.378538735533 pbc="F F F"
C       -4.67396170       0.63360580       0.26755760      -0.05319613      -1.18956581      -0.96524275      -0.05319613      -1.18956581      -0.96524275
N        0.38093400       0.63601170      -1.06224030      -2.00349748       4.53120534      -0.95504200      -2.00349748       4.53120534      -0.95504200
H       -4.21682900       1.47624430       0.72931610       0.39060835       1.54394191       1.10348969       0.39060835       1.54394191       1.10348969
H       -4.25219820      -0.01538330      -0.52488070      -0.32567544      -0.38903236      -0.13781119      -0.32567544      -0.38903236      -0.13781119
H       -0.11362820       1.38254310      -1.88880910       1.51952712      -2.53950989       1.91918529       1.51952712      -2.53950989       1.91918529
H        0.32750740       1.48818160      -0.32436890       0.47229595      -1.95702792      -0.96456233       0.47229595      -1.95702792      -0.96456233
6
Properties=species:S:1:pos:R:3:REF_forces:R:3:forces:R:3 REF_energy=-2571.834526504139 split=test T=0 traj_n=13_old energy=-2571.834526504139 pbc="F F F"
C       -2.50974070       0.41177820       0.30312940      -0.88346197      -4.43037258      -5.73875874      -0.88346197      -4.43037258      -5.73875874
N       -1.12014330       0.06527680      -0.04224250      -4.46898304     -11.34520767       7.39907732      -4.46898304     -11.34520767       7.39907732
H       -3.26640900       0.28019190       1.17048960       1.52497452       0.06944082      -0.56237528       1.52497452       0.06944082      -0.56237528
H       -2.90641220       0.16126050      -0.99375710      -0.09783110       2.31057283       3.44576083      -0.09783110       2.31057283       3.44576083
H       -0.75762610      -0.29114340       0.96656280       0.25475001       0.79623101      -2.53286606       0.25475001       0.79623101      -2.53286606
H       -1.04518740       0.93474820      -0.02500780       3.67056001      12.59936736      -2.01071009       3.67056001      12.59936736      -2.01071009
6
Properties=species:S:1:pos:R:3:REF_forces:R:3:forces:R:3 REF_energy=-2569.781148016075 split=test T=0 traj_n=11_old energy=-2569.781148016075 pbc="F F F"
C       -3.01776350       0.17805210       0.26620830      -0.31299085       0.20319702       2.74871697      -0.31299085       0.20319702       2.74871697
N       -0.67187070       0.36172610      -0.00997070      -2.88907813       0.05810431       2.52450411      -2.88907813       0.05810431       2.52450411
H       -3.51120740       0.00220180       1.41530570       2.04230221       0.43420279      -2.89887465       2.04230221       0.43420279      -2.89887465
H       -3.78775120       0.56290930      -0.50262870       1.50085860      -0.33893359       0.10599538       1.50085860      -0.33893359       0.10599538
H       -0.95388800      -0.17911200      -0.87777760       1.21256453      -0.16802145       0.84634187       1.21256453      -0.16802145       0.84634187
H       -0.14325110       0.15296450       1.00623290      -1.55230802      -0.18933497      -3.32691595      -1.55230802      -0.18933497      -3.32691595
6
Properties=species:S:1:pos:R:3:REF_forces:R:3:forces:R:3 REF_energy=-2569.587065900497 split=test T=5000 traj_n=5 energy=-2569.587065900497 pbc="F F F"
C       -2.74964810       0.49115640       0.25605700       6.10036468      -9.82009977      -6.32152662       6.10036468      -9.82009977      -6.32152662
N       -0.93232570       0.02798920       0.04213180      -3.52829881       2.58440902      -0.47741276      -3.52829881       2.58440902      -0.47741276
H       -3.34794400       1.18063830       0.66890750      -1.98107740       3.33653018       3.04211283      -1.98107740       3.33653018       3.04211283
H       -3.10021590      -0.93467100      -0.33206280       0.33499651       4.36351103       1.41952694       0.33499651       4.36351103       1.41952694
H       -0.52005070       0.14569950      -1.11103880      -1.39624899      -0.69015428       4.29429493      -1.39624899      -0.69015428       4.29429493
H       -0.50963990       0.20393460       1.01504460       0.47024616       0.22582232      -1.95691376       0.47024616       0.22582232      -1.95691376
6
Properties=species:S:1:pos:R:3:REF_forces:R:3:forces:R:3 REF_energy=-2571.4868763861073 split=test T=0 traj_n=13_old energy=-2571.4868763861073 pbc="F F F"
C       -2.49906190       0.28536390       0.33586420      -5.72021003       0.78721914      -3.64728232      -5.72021003       0.78721914      -3.64728232
N       -1.32998450       0.09726940       0.05671090      11.19757852      -3.71705944      -1.63778466      11.19757852      -3.71705944      -1.63778466
H       -2.74749420       1.38965100       0.14215750      -0.69770278      -0.63886241       2.04548329      -0.69770278      -0.63886241       2.04548329
H       -3.24830770      -0.54222170      -0.25439500       1.42031565       1.77072315       1.92562698       1.42031565       1.77072315       1.92562698
H       -0.51654990      -0.56099110      -0.42292890      -4.09482405       0.68170080       1.29822367      -4.09482405       0.68170080       1.29822367
H        0.33634810       0.48060310       0.58547080      -2.10516225       1.11616626       0.01585096      -2.10516225       1.11616626       0.01585096
6
Properties=species:S:1:pos:R:3:REF_forces:R:3:forces:R:3 REF_energy=-2570.288193215689 split=test T=5000 traj_n=18 energy=-2570.288193215689 pbc="F F F"
C       -2.79835080       0.31701680       0.08936980       9.82017695       7.44148381       9.72145327       9.82017695       7.44148381       9.72145327
N       -0.92207740       0.15015970       0.13294960      -3.87800738       0.01963433       1.03228257      -3.87800738       0.01963433       1.03228257
H       -2.66426070       1.08886230       1.23060050      -1.90123271      -2.54142341      -3.71210097      -1.90123271      -2.54142341      -3.71210097
H       -3.30674140      -0.33559720      -0.42432470      -3.14057591      -4.17447909      -3.73472899      -3.14057591      -4.17447909      -3.73472899
H       -1.02847420      -0.12516460      -0.86700860       2.42144868      -0.30745526       0.38251966       2.42144868      -0.30745526       0.38251966
H       -0.04237570       0.34468010       1.02658070      -3.32156117      -0.43824652      -3.68955743      -3.32156117      -0.43824652      -3.68955743
6
Properties=species:S:1:pos:R:3:REF_forces:R:3:forces:R:3 REF_energy=-2566.9616783683664 split=test T=5000 traj_n=5 energy=-2566.9616783683664 pbc="F F F"
C       -3.30001630       0.53309380       0.36140130       2.22040846      -0.22707810      -2.51072480       2.22040846      -0.22707810      -2.51072480
N       -0.49945020      -0.12180030      -0.06441790      -1.75924230       2.19231164      -2.27997470      -1.75924230       2.19231164      -2.27997470
H       -2.83202180       1.76687680      -0.13375830      -1.20887716      -3.76740278       1.63714353      -1.20887716      -3.76740278       1.63714353
H       -2.95154340      -0.84653120       0.08082750      -0.42193719       3.83340233       0.91279862      -0.42193719       3.83340233       0.91279862
H       -0.66328570       0.93623780      -0.36061500       0.44503310      -1.63964958      -1.45508874       0.44503310      -1.63964958      -1.45508874
H       -0.42772370       0.31487510       0.82071530       0.72488408      -0.39175136       3.69560132       0.72488408      -0.39175136       3.69560132
6
Properties=species:S:1:pos:R:3:REF_forces:R:3:forces:R:3 REF_energy=-2571.127964690116 split=test T=0 traj_n=20_old energy=-2571.127964690116 pbc="F F F"
C       -2.60429080       0.40724310       0.26757870       3.93993168      -5.12126605      -5.33661015       3.93993168      -5.12126605      -5.33661015
N       -1.00668450       0.17181620       0.02429530      -5.55106326       0.26795062       6.22991260      -5.55106326       0.26795062       6.22991260
H       -3.45702790       0.87002140       0.80387690       1.14067067       0.75040603       1.10313015       1.14067067       0.75040603       1.10313015
H       -3.58510070      -0.67362070      -0.76809750       2.09792120       2.38267423       1.51299050       2.09792120       2.38267423       1.51299050
H       -0.52637140      -0.38222860      -0.68366640      -1.12617618      -0.41466390      -1.36196693      -1.12617618      -0.41466390      -1.36196693
H       -0.64195700      -0.23721050       1.01866800      -0.50132535       2.13521392      -2.14736223      -0.50132535       2.13521392      -2.14736223
6
Properties=species:S:1:pos:R:3:REF_forces:R:3:forces:R:3 REF_energy=-2574.0958796595237 split=test T=0 traj_n=13_old energy=-2574.0958796595237 pbc="F F F"
C       -2.47822900       0.32898160       0.22207140      -1.18140764       0.96509913      -1.62662119      -1.18140764       0.96509913      -1.62662119
N       -1.21117480       0.14118780       0.08167170       6.69701523       0.89262769      -0.58747891       6.69701523       0.89262769      -0.58747891
H       -2.71517140       1.37232510      -0.29199290      -1.33768131      -2.56304413       0.22025640      -1.33768131      -2.56304413       0.22025640
H       -2.84172630      -0.70976010       0.40265890      -2.01364526       1.12237233       1.90567419      -2.01364526       1.12237233       1.90567419
H       -0.85601470       0.36950020      -0.97144480       0.20053886       0.85274875       3.26441896       0.20053886       0.85274875       3.26441896
H       -0.44632960       0.03869300       0.97981610      -2.36477051      -1.27009472      -3.17595002      -2.36477051      -1.27009472      -3.17595002
6
Properties=species:S:1:pos:R:3:REF_forces:R:3:forces:R:3 REF_energy=-2570.542205263839 split=test T=0 traj_n=11_old energy=-2570.542205263839 pbc="F F F"
C       -2.93326860       0.36472850       0.26386820       2.59138154       2.76320591      -1.27043400       2.59138154       2.76320591      -1.27043400
N       -0.79199660       0.00546810       0.04855720      -1.77457872       3.30862713      -0.25723483      -1.77457872       3.30862713      -0.25723483
H       -3.07010020       1.58943350       0.06528380       0.19905606      -3.11592859       0.53271102       0.19905606      -3.11592859       0.53271102
H       -3.53471210      -0.42315990      -0.24810890       0.13021919      -0.12778281       0.47542653       0.13021919      -0.12778281       0.47542653
H       -0.61188520       0.94045110      -0.49921140      -0.78283356      -1.34155067      -0.29803721      -0.78283356      -1.34155067      -0.29803721
H       -0.13138660       0.41865630       0.76897760      -0.36317735      -1.48915709       0.81667519      -0.36317735      -1.48915709       0.81667519
6
Properties=species:S:1:pos:R:3:REF_forces:R:3:forces:R:3 REF_energy=-2568.7938273357895 split=test T=5000 traj_n=18 energy=-2568.7938273357895 pbc="F F F"
C       -3.01849100       0.37019040       0.12162970      -0.53697956      -9.27759547      -6.12337883      -0.53697956      -9.27759547      -6.12337883
N       -0.64557440       0.08105460       0.11625770      -3.09816206      -0.64503167       2.09020835      -3.09816206      -0.64503167       2.09020835
H       -3.03455610       1.07306110       0.77308410      -0.34741535       5.52391935       5.37868888      -0.34741535       5.52391935       5.37868888
H       -3.89442300      -0.63920000      -0.24515530       3.20099323       3.45015171       1.09742651       3.20099323       3.45015171       1.09742651
H       -0.92595110       0.42412210      -0.77999210       0.50911991       0.70888060      -1.69993183       0.50911991       0.70888060      -1.69993183
H       -0.40730500       0.44184400       1.06609990       0.27240357       0.23946259      -0.74312091       0.27240357       0.23946259      -0.74312091
6
Properties=species:S:1:pos:R:3:REF_forces:R:3:forces:R:3 REF_energy=-2567.847068389071 split=test T=5000 traj_n=5 energy=-2567.847068389071 pbc="F F F"
C       -3.69848880       0.51890570       0.36231860      -1.35763210       2.01751328      -0.03700954      -1.35763210       2.01751328      -0.03700954
N       -0.12029500      -0.11820330      -0.17185490       2.61330138       3.14630258       3.32852433       2.61330138       3.14630258       3.32852433