6
Properties=species:S:1:pos:R:3:REF_forces:R:3:forces:R:3 REF_energy=-2570.6829587505335 split=test T=0 traj_n=13_old energy=-2570.6829587505335 pbc="F F F"
C       -2.47822900       0.32898160       0.22207140      -3.68265762       1.00924353      -0.41040168      -3.68265762       1.00924353      -0.41040168
N       -1.21117480       0.14118780       0.08167170       9.38915220      -0.55172330      -0.07368093       9.38915220      -0.55172330      -0.07368093
H       -2.71517140       1.37232510      -0.29199290      -1.39202852      -0.78303040       2.25413691      -1.39202852      -0.78303040       2.25413691
H       -2.84172630      -0.70976010       0.40265890      -2.37611818       0.52292231      -1.23765310      -2.37611818       0.52292231      -1.23765310
H       -0.85601470       0.36950020      -0.97144480      -0.14823681      -2.12657424       2.32355932      -0.14823681      -2.12657424       2.32355932
H       -0.44632960       0.03869300       0.97981610      -1.79000360       1.92905164      -2.85571714      -1.79000360       1.92905164      -2.85571714
6
Properties=species:S:1:pos:R:3:REF_forces:R:3:forces:R:3 REF_energy=-2568.8287744638046 split=test T=0 traj_n=11_old energy=-2568.8287744638046 pbc="F F F"
C       -3.06441090       0.38955000       0.12199730       0.71025573      -3.57699730       2.31100668       0.71025573      -3.57699730       2.31100668
N       -0.71901050       0.21361400       0.15770040       2.68838367      -0.04261547      -0.84724535       2.68838367      -0.04261547      -0.84724535
H       -3.42747020      -0.12493800      -0.85394640      -0.04681295       1.71050811       0.83358179      -0.04681295       1.71050811       0.83358179
H       -3.08207340       0.30696920       1.33697760      -0.55613002       1.21149989      -2.61706100      -0.55613002       1.21149989      -2.61706100
H        0.24450250      -0.19318310       0.57175980      -2.42901930       0.39869411       0.18077664      -2.42901930       0.39869411       0.18077664
H       -0.68588650      -0.36139980      -0.72776470      -0.36661368       0.29891833       0.13894844      -0.36661368       0.29891833       0.13894844
6
Properties=species:S:1:pos:R:3:REF_forces:R:3:forces:R:3 REF_energy=-2567.231501521861 split=test T=0 traj_n=11_old energy=-2567.231501521861 pbc="F F F"
C       -3.19619470       0.10055440       0.30901610      -0.11005618       5.99593443       0.61770069      -0.11005618       5.99593443       0.61770069
N       -0.67433020       0.34915060       0.01504340       4.78343670      -1.02088857       1.03950912       4.78343670      -1.02088857       1.03950912
H       -2.77089840       0.97184420       1.16697400      -0.69649447      -3.76970422      -1.35797102      -0.69649447      -3.76970422      -1.35797102
H       -3.82804110       0.30750900      -0.65436370       0.50585353      -2.26727931       0.70951582       0.50585353      -2.26727931       0.70951582
H       -0.02866530       0.63800410      -0.77500210      -1.14657017       0.23582268      -0.43651668      -1.14657017       0.23582268      -0.43651668
H        0.32471680      -0.15104290       0.47521950      -3.33590664       0.82597611      -0.57222944      -3.33590664       0.82597611      -0.57222944
6
Properties=species:S:1:pos:R:3:REF_forces:R:3:forces:R:3 REF_energy=-2568.7430287210864 split=test T=0 traj_n=13_old energy=-2568.7430287210864 pbc="F F F"
C       -2.55327110       0.35130930       0.18685930      -2.51795207      -0.26691930       0.06722067      -2.51795207      -0.26691930       0.06722067
N       -1.09681360       0.17766140       0.01282550       0.59251833      -1.32024717       1.19514932       0.59251833      -1.32024717       1.19514932
H       -3.18372510       0.64851350       1.14260050       2.05901361      -0.99477053      -0.15147589       2.05901361      -0.99477053      -0.15147589
H       -3.43691370      -0.35074850      -0.32494400       2.31860409       1.86453356      -0.55636825       2.31860409       1.86453356      -0.55636825
H       -1.12910900      -1.07231620       0.40986690       1.18841375       3.85701802       0.48948254       1.18841375       3.85701802       0.48948254
H        0.04408530       1.11848730       0.36056370      -3.64241800      -3.13998373      -1.04479603      -3.64241800      -3.13998373      -1.04479603
6
Properties=species:S:1:pos:R:3:REF_forces:R:3:forces:R:3 REF_energy=-2567.625703904092 split=test T=5000 traj_n=13 energy=-2567.625703904092 pbc="F F F"
C       -2.47126180       0.34363470       0.18751480       8.29135920      -3.14422605      -8.38650956       8.29135920      -3.14422605      -8.38650956
N       -1.13996490       0.17238260       0.06844590      -2.14187560       1.41863060       0.38242740      -2.14187560       1.41863060       0.38242740
H       -2.88779350       0.68898330       0.89797210      -8.57166341       5.39114839      10.31724240      -8.57166341       5.39114839      10.31724240
H       -3.21741750      -0.27398910      -0.56444760      -0.65730946      -0.63120937       0.10223237      -0.65730946      -0.63120937       0.10223237
H       -1.12511990      -0.50717850      -0.66818230       2.93858113      -1.47045900      -0.87848776       2.93858113      -1.47045900      -0.87848776
H       -0.67970400       0.43847900       1.02708900       0.13764304      -1.56354559      -1.53666373       0.13764304      -1.56354559      -1.53666373
6
Properties=species:S:1:pos:R:3:REF_forces:R:3:forces:R:3 REF_energy=-2567.6960865652627 split=test T=5000 traj_n=5 energy=-2567.6960865652627 pbc="F F F"
C       -3.66453370       0.58248110       0.32786420      -0.25400449      -4.22090936       4.47944044      -0.25400449      -4.22090936       4.47944044
N       -0.19172000      -0.10589910      -0.13513550      -0.32202293       3.69208627       1.34392102      -0.32202293       3.69208627       1.34392102
H       -3.06345250       1.20463150      -0.24375550       1.13667050       1.76483974      -1.88002852       1.13667050       1.76483974      -1.88002852
H       -3.57537500      -0.27624130       1.27048400      -0.65530405       2.30365981      -2.72792760      -0.65530405       2.30365981      -2.72792760
H       -0.16552830       1.05792370      -0.09717260       0.12384701      -3.31014912      -0.56114860       0.12384701      -3.31014912      -0.56114860
H        0.17680580      -0.63296580       0.69891850      -0.03060780      -0.25054950      -0.64628164      -0.03060780      -0.25054950      -0.64628164
6
Properties=species:S:1:pos:R:3:REF_forces:R:3:forces:R:3 REF_energy=-2565.7128994299715 split=test T=0 traj_n=13_old energy=-2565.7128994299715 pbc="F F F"
C       -2.47519200       0.35348380       0.28887230      -4.45852071       1.83227793       1.73593247      -4.45852071       1.83227793       1.73593247
N       -1.23397230       0.06954560       0.13300710      -9.84541372     -22.45110795      -6.42322856      -9.84541372     -22.45110795      -6.42322856
H       -3.18700190       1.35147300       0.40046550       0.91673971      -2.05728100      -0.76550129       0.91673971      -2.05728100      -0.76550129
H       -2.85710320      -0.48411960      -0.48763270      -1.45084277       0.21457102      -1.00206018      -1.45084277       0.21457102      -1.00206018
H       -0.77196560      -0.96345060      -0.72054510      -1.15852930       3.55747137       2.73683986      -1.15852930       3.55747137       2.73683986
H       -0.77438040       0.68328770       0.28933250      15.99687054      18.90729166       3.71816548      15.99687054      18.90729166       3.71816548
6
Properties=species:S:1:pos:R:3:REF_forces:R:3:forces:R:3 REF_energy=-2569.269756527026 split=test T=0 traj_n=11_old energy=-2569.269756527026 pbc="F F F"
C       -2.93326860       0.36472850       0.26386820       1.53294787       2.84631513      -2.82275380       1.53294787       2.84631513      -2.82275380
N       -0.79199660       0.00546810       0.04855720      -1.10854139       3.85084316       0.09390430      -1.10854139       3.85084316       0.09390430
H       -3.07010020       1.58943350       0.06528380       0.68594821      -2.59379946       1.84909388       0.68594821      -2.59379946       1.84909388
H       -3.53471210      -0.42315990      -0.24810890       0.56763236      -0.63297721       0.87526976       0.56763236      -0.63297721       0.87526976
H       -0.61188520       0.94045110      -0.49921140      -0.86588451      -2.06243570      -1.29405087      -0.86588451      -2.06243570      -1.29405087
H       -0.13138660       0.41865630       0.76897760      -0.81203785      -1.41619170       1.29681470      -0.81203785      -1.41619170       1.29681470
6
Properties=species:S:1:pos:R:3:REF_forces:R:3:forces:R:3 REF_energy=-2568.772169257262 split=test T=0 traj_n=11_old energy=-2568.772169257262 pbc="F F F"
C       -3.13467850       0.43295370       0.21705910       1.53190524      -3.78385326       0.42980965       1.53190524      -3.78385326       0.42980965
N       -0.61465830       0.12927820       0.03494040      -0.20855119       2.03897582      -0.01397821      -0.20855119       2.03897582      -0.01397821
H       -3.20026350       0.66858500      -0.88693720      -0.59814776       0.40179100       0.79810072      -0.59814776       0.40179100       0.79810072
H       -3.51153700      -0.47443240       0.96055150       0.21084909       2.69781088      -1.34521948       0.21084909       2.69781088      -1.34521948
H       -0.42920960       0.87721430       0.82151130      -0.27038705      -2.42534211      -0.99101328      -0.27038705      -2.42534211      -0.99101328
H       -0.36149230      -0.90669290      -0.02173060      -0.66583776       1.07068874       1.12238992      -0.66583776       1.07068874       1.12238992
6
Properties=species:S:1:pos:R:3:REF_forces:R:3:forces:R:3 REF_energy=-2568.398099982179 split=test T=0 traj_n=13_old energy=-2568.398099982179 pbc="F F F"
C       -2.66226260       0.37818650       0.24618990      -5.09639047      -2.67210555      -1.70185548      -5.09639047      -2.67210555      -1.70185548
N       -0.96113970       0.03801330       0.09700810       1.25695607       3.01459734      -0.85380362       1.25695607       3.01459734      -0.85380362
H       -3.33415810       1.13595400       0.83662250       2.01553399      -0.05543571      -0.88136662       2.01553399      -0.05543571      -0.88136662
H       -3.64526710      -0.30074840      -0.87539280       2.94376375       1.75516293       2.59867674       2.94376375       1.75516293       2.59867674
H       -0.66754930       0.07087740      -0.96972660      -0.46498677       0.03672775       1.87274828      -0.46498677       0.03672775       1.87274828
H       -0.44607180       0.89412960       0.60940360      -0.65488116      -2.07900333      -1.03448539      -0.65488116      -2.07900333      -1.03448539
6
Properties=species:S:1:pos:R:3:REF_forces:R:3:forces:R:3 REF_energy=-2570.941284742597 split=test T=0 traj_n=11_old energy=-2570.941284742597 pbc="F F F"
C       -2.84254590       0.35138560       0.24440690       2.35621686       0.64549910       0.24069471       2.35621686       0.64549910       0.24069471
N       -0.85826440       0.02238220       0.07383190      -3.40603652       5.71552378      -2.68909376      -3.40603652       5.71552378      -2.68909376
H       -3.05609550       1.46061230       0.37974660       1.08997422      -0.81706800       0.39092757       1.08997422      -0.81706800       0.39092757
H       -3.46473050      -0.28004730      -0.36765870       0.22345449      -1.12425407      -0.60050165       0.22345449      -1.12425407      -0.60050165
H       -0.62719900       0.70038500      -0.87479440      -0.33323382      -3.22772505       2.06626176      -0.33323382      -3.22772505       2.06626176
H       -0.34177550       0.53464270       0.82258440       0.07065917      -1.19110153       0.58954896       0.07065917      -1.19110153       0.58954896
6
Properties=species:S:1:pos:R:3:REF_forces:R:3:forces:R:3 REF_energy=-2567.9873150983135 split=test T=5000 traj_n=18 energy=-2567.9873150983135 pbc="F F F"
C       -3.35961200       0.38131120       0.16807490      -0.41957584      -3.67194013      -0.95003040      -0.41957584      -3.67194013      -0.95003040
N       -0.39752730       0.01003710       0.07956690       0.13311024       0.23334393      -6.98705749       0.13311024       0.23334393      -6.98705749
H       -3.19073850       1.46941870       0.41579910      -0.08403502      -0.48830338      -0.16801158      -0.08403502      -0.48830338      -0.16801158
H       -3.60752220      -0.86156770      -0.17056790       0.83325243       3.97391586       1.02762137       0.83325243       3.97391586       1.02762137
H       -0.36502600       0.99651490      -0.42147610       0.37844266      -1.89041639       0.38455093       0.37844266      -1.89041639       0.38455093
H       -0.57305810       0.33022790       0.92826770      -0.84124172       1.84338495       6.69296878      -0.84124172       1.84338495       6.69296878
6
Properties=species:S:1:pos:R:3:REF_forces:R:3:forces:R:3 REF_energy=-2567.1550379642563 split=test T=5000 traj_n=18 energy=-2567.1550379642563 pbc="F F F"
C       -2.79835080       0.31701680       0.08936980       6.16916478       6.57397570       9.21529671       6.16916478       6.57397570       9.21529671
N       -0.92207740       0.15015970       0.13294960       0.36397902       0.36517715       0.87177759       0.36397902       0.36517715       0.87177759
H       -2.66426070       1.08886230       1.23060050      -1.64327499      -1.67323961      -3.82073626      -1.64327499      -1.67323961      -3.82073626
H       -3.30674140      -0.33559720      -0.42432470      -3.59956239      -4.37993715      -3.31138001      -3.59956239      -4.37993715      -3.31138001
H       -1.02847420      -0.12516460      -0.86700860       2.46090874       0.42178657       0.54944669       2.46090874       0.42178657       0.54944669
H       -0.04237570       0.34468010       1.02658070      -3.75087655      -1.30851312      -3.50419440      -3.75087655      -1.30851312      -3.50419440
6
Properties=species:S:1:pos:R:3:REF_forces:R:3:forces:R:3 REF_energy=-2568.523914146866 split=test T=0 traj_n=20_old energy=-2568.523914146866 pbc="F F F"
C       -3.13770910       0.27790160       0.20798440       1.74484875       4.39256887      -2.15427125       1.74484875       4.39256887      -2.15427125
N       -0.60743230       0.11447790      -0.02780040      -0.25502460       1.24710828       2.60187129      -0.25502460       1.24710828       2.60187129
H       -2.96744160       0.01107790       1.27282710      -0.97430866      -0.83381041      -0.07487634      -0.97430866      -0.83381041      -0.07487634
H       -3.41305900       1.17557020      -0.68559370       0.15481739      -3.05973733       2.20334548       0.15481739      -3.05973733       2.20334548
H       -1.06267380      -0.53697380       0.69297650       1.23486124       0.25859396      -0.55774205       1.23486124       0.25859396      -0.55774205
H       -0.06211310       0.91286210       0.67273460      -1.90235382      -2.00487153      -2.01834920      -1.90235382      -2.00487153      -2.01834920
6
Properties=species:S:1:pos:R:3:REF_forces:R:3:forces:R:3 REF_energy=-2566.7399973768715 split=test T=0 traj_n=13_old energy=-2566.7399973768715 pbc="F F F"
C       -2.61020900       0.21910770       0.30388480      -1.41530375       2.88273131       0.67752122      -1.41530375       2.88273131       0.67752122
N       -1.34976720       0.10215610      -0.04283380       6.86765802      -3.40289468      -0.85627198       6.86765802      -3.40289468      -0.85627198
H       -2.42096220       1.37494140       0.33326670      -2.42856164      -0.30726521       0.42684383      -2.42856164      -0.30726521       0.42684383
H       -3.60137050      -0.29821190       0.52387370       1.04932127      -0.28697648      -0.14345188       1.04932127      -0.28697648      -0.14345188
H       -0.17681360      -0.45538980       0.02117480      -3.99765125       1.19912147      -0.07260349      -3.99765125       1.19912147      -0.07260349
H        1.36721110       0.55905110       1.02191600      -0.08566670      -0.08659851      -0.03077827      -0.08566670      -0.08659851      -0.03077827
6
Properties=species:S:1:pos:R:3:REF_forces:R:3:forces:R:3 REF_energy=-2568.4998422481904 split=test T=0 traj_n=11_old energy=-2568.4998422481904 pbc="F F F"
C       -3.01776350       0.17805210       0.26620830      -2.26046774       0.37041665       3.16781916      -2.26046774       0.37041665       3.16781916
N       -0.67187070       0.36172610      -0.00997070      -0.48939194      -0.33261737       1.61875284      -0.48939194      -0.33261737       1.61875284
H       -3.51120740       0.00220180       1.41530570       1.99870874       0.10504711      -2.95378561       1.99870874       0.10504711      -2.95378561
H       -3.78775120       0.56290930      -0.50262870       1.49921582      -0.27645321       0.13743026       1.49921582      -0.27645321       0.13743026
H       -0.95388800      -0.17911200      -0.87777760       1.13117955      -0.01658007       1.09976036       1.13117955      -0.01658007       1.09976036
H       -0.14325110       0.15296450       1.00623290      -1.87840965       0.14889619      -3.07030030      -1.87840965       0.14889619      -3.07030030
6
Properties=species:S:1:pos:R:3:REF_forces:R:3:forces:R:3 REF_energy=-2568.9594956662504 split=test T=0 traj_n=13_old energy=-2568.9594956662504 pbc="F F F"
C       -2.49284420       0.28889600       0.14343660      -2.85926197       4.55619153       0.04325177      -2.85926197       4.55619153       0.04325177
N       -1.21106460      -0.02927780       0.19053440       3.94073366       0.68490578       0.31293603       3.94073366       0.68490578       0.31293603
H       -2.71742250       0.84320660       1.14979940      -0.67439563      -1.73691967      -0.83239379      -0.67439563      -1.73691967      -0.83239379
H       -3.37461700       0.62742820      -0.67784780       2.50488736      -1.60107028       0.97484644       2.50488736      -1.60107028       0.97484644
H       -0.27203620      -0.19888940      -0.31029770      -2.24411537      -0.56613089      -0.54473010      -2.24411537      -0.56613089      -0.54473010
H       -0.64301390       2.33521590      -0.06086020      -0.66781530      -1.33700830       0.04627014      -0.66781530      -1.33700830       0.04627014
6
Properties=species:S:1:pos:R:3:REF_forces:R:3:forces:R:3 REF_energy=-2565.9902315781205 split=test T=5000 traj_n=5 energy=-2565.9902315781205 pbc="F F F"
C       -3.30001630       0.53309380       0.36140130       4.26877667      -0.33813568      -3.48024190       4.26877667      -0.33813568      -3.48024190
N       -0.49945020      -0.12180030      -0.06441790      -1.76393729       2.16029236      -1.91846399      -1.76393729       2.16029236      -1.91846399
H       -2.83202180       1.76687680      -0.13375830      -2.30488082      -3.16144133       1.96329370      -2.30488082      -3.16144133       1.96329370
H       -2.95154340      -0.84653120       0.08082750      -1.62750827       3.29465143       1.24558125      -1.62750827       3.29465143       1.24558125
H       -0.66328570       0.93623780      -0.36061500       0.35646379      -1.54978860      -1.33291911       0.35646379      -1.54978860      -1.33291911
H       -0.42772370       0.31487510       0.82071530       1.07131161      -0.40571805       3.52250986       1.07131161      -0.40571805       3.52250986
6
Properties=species:S:1:pos:R:3:REF_forces:R:3:forces:R:3 REF_energy=-2567.057469914221 split=test T=0 traj_n=24_old energy=-2567.057469914221 pbc="F F F"
C       -4.67396170       0.63360580       0.26755760       3.11339939      -0.35558812      -2.04708848       3.11339939      -0.35558812      -2.04708848
N        0.38093400       0.63601170      -1.06224030      -2.00196428       4.53682176      -0.95631161      -2.00196428       4.53682176      -0.95631161
H       -4.21682900       1.47624430       0.72931610      -1.21267704       2.00119284       2.40085034      -1.21267704       2.00119284       2.40085034
H       -4.25219820      -0.01538330      -0.52488070      -1.89183759      -1.68053481      -0.35230415      -1.89183759      -1.68053481      -0.35230415
H       -0.11362820       1.38254310      -1.88880910       1.51977590      -2.54100926       1.91907283       1.51977590      -2.54100926       1.91907283
H        0.32750740       1.48818160      -0.32436890       0.47331447      -1.96090951      -0.96421395       0.47331447      -1.96090951      -0.96421395
6
Properties=species:S:1:pos:R:3:REF_forces:R:3:forces:R:3 REF_energy=-2566.5074242211404 split=test T=5000 traj_n=5 energy=-2566.5074242211404 pbc="F F F"
C       -3.56379780       0.58727300       0.33189810       4.03302352      -3.44334359       1.17622841       4.03302352      -3.44334359       1.17622841
N       -0.29624630      -0.11640820      -0.10205440      -1.63257895       5.66755954      -1.43034958      -1.63257895       5.66755954      -1.43034958
H       -2.68703420       1.11255440      -0.11494100      -1.12305440       1.38363531      -0.43191497      -1.12305440       1.38363531      -0.43191497
H       -2.95010880      -0.44441270       0.83048020      -2.85463358       2.10963653      -0.66732859      -2.85463358       2.10963653      -0.66732859
H       -0.67423080       1.08986810      -0.40409660       1.18455128      -4.28825258       0.06802877       1.18455128      -4.28825258       0.06802877
H       -0.14291560      -0.31194220       0.87996300       0.39283965      -1.42922853       1.28492186       0.39283965      -1.42922853       1.28492186
6
Properties=species:S:1:pos:R:3:REF_forces:R:3:forces:R:3 REF_energy=-2569.765712715645 split=test T=0 traj_n=13_old energy=-2569.765712715645 pbc="F F F"
C       -2.47386930       0.30604980       0.24431340      -0.96507110       3.22882743      -2.89965601      -0.96507110       3.22882743      -2.89965601
N       -1.22171410      -0.01104760       0.07046140       2.35919122       1.41340627      -1.38766552       2.35919122       1.41340627      -1.38766552
H       -3.06378970       0.62419520       1.13623530       0.59736038      -0.01103919       0.27552813       0.59736038      -0.01103919       0.27552813
H       -2.89662170       0.77489610      -0.85898210      -0.28125258      -2.26702153       2.17721793      -0.28125258      -2.26702153       2.17721793
H       -0.22485030      -0.04180550       0.37834180      -0.81525918      -1.16033000       0.93946867      -0.81525918      -1.16033000       0.93946867
H       -0.86124760       1.89791520      -0.21821280      -0.88754760      -1.20388917       0.89529372      -0.88754760      -1.20388917       0.89529372
6
Properties=species:S:1:pos:R:3:REF_forces:R:3:forces:R:3 REF_energy=-2568.6397187172192 split=test T=0 traj_n=11_old energy=-2568.6397187172192 pbc="F F F"
C       -3.11605780       0.42973060       0.26275640       1.20814578       0.87327510      -1.78796749       1.20814578       0.87327510      -1.78796749
N       -0.63821330       0.08617720       0.01011910       2.35526807      -1.59633097      -0.05128595       2.35526807      -1.59633097      -0.05128595
H       -3.10852310       0.98924990      -0.76148840      -0.13532673      -0.61424240       1.55606142      -0.13532673      -0.61424240       1.55606142
H       -3.53488100      -0.53639510       0.51301300      -0.58614004      -0.66000670       0.47476272      -0.58614004      -0.66000670       0.47476272
H       -0.72828450       1.00739320       0.44302320      -0.44855361       0.52998128       0.35776410      -0.44855361       0.52998128       0.35776410
H        0.00345730      -0.71351640       0.46661790      -2.39367054       1.46717689      -0.54609207      -2.39367054       1.46717689      -0.54609207
6
Properties=species:S:1:pos:R:3:REF_forces:R:3:forces:R:3 REF_energy=-2567.938647590383 split=test T=5000 traj_n=18 energy=-2567.938647590383 pbc="F F F"
C       -3.01849100       0.37019040       0.12162970      -0.97603357      -9.56011453      -5.77202064      -0.97603357      -9.56011453      -5.77202064
N       -0.64557440       0.08105460       0.11625770      -1.08647325      -2.07226045       0.90371707      -1.08647325      -2.07226045       0.90371707
H       -3.03455610       1.07306110       0.77308410      -0.80521038       6.05866863       5.06106886      -0.80521038       6.05866863       5.06106886
H       -3.89442300      -0.63920000      -0.24515530       2.90919301       3.42572464       1.28583980       2.90919301       3.42572464       1.28583980
H       -0.92595110       0.42412210      -0.77999210       0.49275720       1.53014166      -0.75101687       0.49275720       1.53014166      -0.75101687
H       -0.40730500       0.44184400       1.06609990      -0.53448462       0.61785989      -0.72762482      -0.53448462       0.61785989      -0.72762482
6
Properties=species:S:1:pos:R:3:REF_forces:R:3:forces:R:3 REF_energy=-2567.3232435837263 split=test T=0 traj_n=24_old energy=-2567.3232435837263 pbc="F F F"
C       -4.32780500       0.58287980       0.27253410       2.14106853      -0.86093725      -3.03096350       2.14106853      -0.86093725      -3.03096350
N        0.28134120       0.40545890      -0.65542450      -2.69373815       1.80238639      -1.71187810      -2.69373815       1.80238639      -1.71187810
H       -3.89896630       1.35073720       0.89956460      -0.75810098       0.74405808       1.66332857      -0.75810098       0.74405808       1.66332857
H       -4.20155600      -0.05509900      -0.69026800      -1.41469810       0.07352163       1.38583165      -1.41469810       0.07352163       1.38583165
H       -0.47707380       0.89853240      -1.34564470       1.65281168      -2.15565095      -1.14741241       1.65281168      -2.15565095      -1.14741241
H       -0.22694830       1.18081480      -0.17618450       1.07266566       0.39661635       2.84114310       1.07266566       0.39661635       2.84114310
6
Properties=species:S:1:pos:R:3:REF_forces:R:3:forces:R:3 REF_energy=-2567.733709239829 split=test T=0 traj_n=24_old energy=-2567.733709239829 pbc="F F F"
C       -4.84075010       0.66376220       0.25791560       0.01343304      -0.91301988      -0.59768820       0.01343304      -0.91301988      -0.59768820
N        0.42817280       0.79582520      -1.28542720      -0.12225072       5.63035038      -0.19785874      -0.12225072       5.63035038      -0.19785874
H       -4.53310610       1.58911950       0.73386260       0.19954791       0.31383474       0.10921188       0.19954791       0.31383474       0.10921188
H       -4.43224980      -0.10588680      -0.44374590      -0.20478987       0.59744975       0.48529447      -0.20478987       0.59744975       0.48529447
H        0.09493320       1.40791890      -2.21375260       0.57903808      -2.74284355       1.56826979       0.57903808      -2.74284355       1.56826979
H        0.73641860       1.49086540      -0.40689910      -0.46397046      -2.88682713      -1.36727224      -0.46397046      -2.88682713      -1.36727224
6
Properties=species:S:1:pos:R:3:REF_forces:R:3:forces:R:3 REF_energy=-2568.625556089341 split=test T=0 traj_n=20_old energy=-2568.625556089341 pbc="F F F"
C       -2.60429080       0.40724310       0.26757870       3.21059399      -3.16236739      -2.77061774       3.21059399      -3.16236739      -2.77061774
N       -1.00668450       0.17181620       0.02429530      -2.86916900       1.62688632       4.66817105      -2.86916900       1.62688632       4.66817105
H       -3.45702790       0.87002140       0.80387690       0.52600882       0.85980154       0.06712395       0.52600882       0.85980154       0.06712395
H       -3.58510070      -0.67362070      -0.76809750       1.19882049       0.71801563       1.40647165       1.19882049       0.71801563       1.40647165
H       -0.52637140      -0.38222860      -0.68366640      -0.64176617      -0.26647105      -1.09646950      -0.64176617      -0.26647105      -1.09646950
H       -0.64195700      -0.23721050       1.01866800      -1.42476931       0.22425739      -2.27465869      -1.42476931       0.22425739      -2.27465869
6
Properties=species:S:1:pos:R:3:REF_forces:R:3:forces:R:3 REF_energy=-2567.5906203305135 split=test T=0 traj_n=13_old energy=-2567.5906203305135 pbc="F F F"
C       -2.52660420       0.41363320       0.13490740       2.66929261      -2.85913774       2.51769578       2.66929261      -2.85913774       2.51769578
N       -1.10197690      -0.04750510       0.19817500      -5.43977150       5.62281118       1.34383700      -5.43977150       5.62281118       1.34383700
H       -3.12896060       0.84011090       1.00408240       0.68265818       0.01178625      -0.62584600       0.68265818       0.01178625      -0.62584600
H       -3.15631760      -0.41499770      -0.53058480       0.91155436       2.37078427      -0.14871745       0.91155436       2.37078427      -0.14871745
H       -1.48411600      -0.61510380      -0.46853300       0.79328144      -6.11200715      -3.17458980       0.79328144      -6.11200715      -3.17458980
H       -0.75334190       2.03644140       0.30887890       0.38351426       0.96550526       0.08754077       0.38351426       0.96550526       0.08754077
6
Properties=species:S:1:pos:R:3:REF_forces:R:3:forces:R:3 REF_energy=-2567.4448354136994 split=test T=0 traj_n=13_old energy=-2567.4448354136994 pbc="F F F"
C       -2.50203040       0.37842010       0.23259520      -1.75747873       4.87445093       5.24200223      -1.75747873       4.87445093       5.24200223
N       -1.17777600       0.01020970       0.15074710       1.87179805      -0.47842798       0.67830679       1.87179805      -0.47842798       0.67830679