6
Properties=species:S:1:pos:R:3:REF_forces:R:3:forces:R:3 REF_energy=-2569.4787866863503 split=train T=0 traj_n=99_old energy=-2569.4787866863503 pbc="F F F"
C       -2.85847080       0.33752440       0.23598640       3.23540869      -1.73069781      -2.22457282       3.23540869      -1.73069781      -2.22457282
N       -0.83551480       0.11023840      -0.00905990       1.77716196       4.41552584       3.69936958       1.77716196       4.41552584       3.69936958
H       -3.25280120       0.58233610       1.14076960      -1.21953767       1.36743443       3.44494363      -1.21953767       1.36743443       3.44494363
H       -3.39472960      -0.34802710      -0.39728830      -0.52607207      -0.46080106      -1.04929386      -0.52607207      -0.46080106      -1.04929386
H       -0.57478790      -0.72954390      -0.44873510      -0.00290679      -2.86834918      -0.67352382      -0.00290679      -2.86834918      -0.67352382
H       -0.07049730       0.21121140       1.01991030      -3.26394644      -0.72314004      -3.19695388      -3.26394644      -0.72314004      -3.19695388
6
Properties=species:S:1:pos:R:3:REF_forces:R:3:forces:R:3 REF_energy=-2565.8653191442345 split=train T=5000 traj_n=81 energy=-2565.8653191442345 pbc="F F F"
C       -3.83698870       0.47442820       0.32102110      -5.22818908      -0.39338030      -2.48066233      -5.22818908      -0.39338030      -2.48066233
N        0.04582490       0.10061560       0.09421310       2.83381756      -2.80494140      -4.47989285       2.83381756      -2.80494140      -4.47989285
H       -3.59836800      -0.52524850       0.56454770       1.86483309      -1.55000848       1.14446901       1.86483309      -1.55000848       1.14446901
H       -5.08354560       0.24799250      -0.22921380       3.49700267       1.90344196       1.33631035       3.49700267       1.90344196       1.33631035
H       -0.28642520      -0.98129910       0.11984450      -0.15268883       2.44259807       0.99124689      -0.15268883       2.44259807       0.99124689
H        0.90823610       0.31808820      -0.87671270      -2.81470995       0.40114421       3.49199889      -2.81470995       0.40114421       3.49199889
6
Properties=species:S:1:pos:R:3:REF_forces:R:3:forces:R:3 REF_energy=-2568.847607310464 split=train T=0 traj_n=28_old energy=-2568.847607310464 pbc="F F F"
C       -2.46553210       0.12810660      -0.05787110       6.92965293       0.28641731      -5.51906438       6.92965293       0.28641731      -5.51906438
N       -1.14227630       0.44281820       0.37431260       3.56726372      -1.04899017      -4.12973886       3.56726372      -1.04899017      -4.12973886
H       -2.75380260       0.39063980      -1.09187030      -0.63376875       0.82360611       0.29105939      -0.63376875       0.82360611       0.29105939
H       -2.89901620      -0.26130370       0.68887230      -5.42919661      -3.13630715       6.09076968      -5.42919661      -3.13630715       6.09076968
H       -0.14814520      -0.09421330      -0.31041590      -2.38371877       2.25501859       3.15712378      -2.38371877       2.25501859       3.15712378
H       -1.60923080      -0.87761070      -0.29045130      -2.05021705       0.82020367       0.10999607      -2.05021705       0.82020367       0.10999607
6
Properties=species:S:1:pos:R:3:REF_forces:R:3:forces:R:3 REF_energy=-2566.9719644489123 split=train T=5000 traj_n=65 energy=-2566.9719644489123 pbc="F F F"
C       -3.11006080       0.39617960       0.29632460       2.53873409       1.77359348      -3.42501378       2.53873409       1.77359348      -3.42501378
N       -0.70346700       0.01624110       0.03185800      -1.17777910      -6.01704699       8.66684000      -1.17777910      -6.01704699       8.66684000
H       -2.86324850       1.50181560       0.80936520      -0.79197409      -2.79494762      -0.26791036      -0.79197409      -2.79494762      -0.26791036
H       -2.76635790      -0.25632730      -0.86856900      -1.24743666       0.88777242       4.13446733      -1.24743666       0.88777242       4.13446733
H       -0.72563990       0.38227400      -0.76010710       0.51931449       5.37439344      -9.64268721       0.51931449       5.37439344      -9.64268721
H       -0.00820620       0.26422080       0.72378670       0.15988015       0.77629709       0.53448117       0.15988015       0.77629709       0.53448117
6
Properties=species:S:1:pos:R:3:REF_forces:R:3:forces:R:3 REF_energy=-2566.1733720517327 split=train T=5000 traj_n=15 energy=-2566.1733720517327 pbc="F F F"
C       -2.50091680       0.11503940       0.08204600       3.90564987       1.51603166      -4.33435184       3.90564987       1.51603166      -4.33435184
N       -1.09713090       0.29204030      -0.14779920      -3.31977404       0.23296819       1.38181276      -3.31977404       0.23296819       1.38181276
H       -3.20894820       0.62591060       4.83928650       0.00238048      -0.00176239      -0.00974284       0.00238048      -0.00176239      -0.00974284
H       -2.88731990       1.04029000      -0.63995740      -0.74146414      -1.45838171       2.31370428      -0.74146414      -1.45838171       2.31370428
H       -0.13392180      -0.00711530      -0.21111040       1.09431692      -0.97581914      -0.72583533       1.09431692      -0.97581914      -0.72583533
H       -1.95689200      -0.26909240       1.04845020      -0.94027044       0.68737240       1.37369491      -0.94027044       0.68737240       1.37369491
6
Properties=species:S:1:pos:R:3:REF_forces:R:3:forces:R:3 REF_energy=-2568.6835222658456 split=train T=0 traj_n=89_old energy=-2568.6835222658456 pbc="F F F"
C       -3.13145020       0.41421200       0.24429760      -0.70372971       0.37064594      -6.31038942      -0.70372971       0.37064594      -6.31038942
N       -0.58662880       0.01308630       0.11998810      -1.83838765       1.01727987      -4.67671529      -1.83838765       1.01727987      -4.67671529
H       -3.54507720       0.59338790      -0.93230880       1.51835706      -0.30999305       3.52539768       1.51835706      -0.30999305       3.52539768
H       -3.05976560       0.21044270       1.25238070       0.24557189      -0.47477141       3.14678821       0.24557189      -0.47477141       3.14678821
H       -0.26796510       1.02980400       0.04942820       0.32960414      -0.89382968       0.41107263       0.32960414      -0.89382968       0.41107263
H       -0.57237650      -0.24390930      -1.07530160       0.44872865       0.29057407       3.90387227       0.44872865       0.29057407       3.90387227
6
Properties=species:S:1:pos:R:3:REF_forces:R:3:forces:R:3 REF_energy=-2567.2495442776008 split=train T=5000 traj_n=86 energy=-2567.2495442776008 pbc="F F F"
C       -3.61580700      -0.03027140       0.51907790       2.20044554      -4.30066381      -2.36792412       2.20044554      -4.30066381      -2.36792412
N        0.16013590      -0.18814560      -0.39673840      -1.17653972      -1.42758081       1.02685312      -1.17653972      -1.42758081       1.02685312
H       -4.20075310      -1.21510580       0.32025350       0.47267833       3.58259423       1.10541755       0.47267833       3.58259423       1.10541755
H       -2.44868240       0.31080560       0.19123080      -2.01680792       0.55958604       1.00505942      -2.01680792       0.55958604       1.00505942
H        0.35016320       0.83318070      -0.36513420       1.03248065      -0.47017973       0.20265385       1.03248065      -0.47017973       0.20265385
H        0.76370860      -0.96093510       0.09308720      -0.51302485       2.05583887      -0.97266964      -0.51302485       2.05583887      -0.97266964
6
Properties=species:S:1:pos:R:3:REF_forces:R:3:forces:R:3 REF_energy=-2567.4556898776495 split=train T=5000 traj_n=63 energy=-2567.4556898776495 pbc="F F F"
C       -2.74772060       0.60931810       0.41288760       4.13130585      -0.65996264      -1.55592032       4.13130585      -0.65996264      -1.55592032
N       -1.84059370      -0.32629320       0.54028650      -0.02360011      -1.85256435       0.45957573      -0.02360011      -1.85256435       0.45957573
H       -2.73473090       0.08439510      -0.82375870      -0.05173327       0.31483598       1.70637764      -0.05173327       0.31483598       1.70637764
H       -3.39496720       1.01340540       1.14557030      -2.21777097       0.54221289       0.44023342      -2.21777097       0.54221289       0.44023342
H       12.20387700       4.12969460      -9.49102120      -0.00041914      -0.01908078      -0.00001486      -0.00041914      -0.01908078      -0.00001486
H       -0.73960040      -0.57534670       0.61457840      -1.85530319       1.68176775      -1.08829221      -1.85530319       1.68176775      -1.08829221
6
Properties=species:S:1:pos:R:3:REF_forces:R:3:forces:R:3 REF_energy=-2567.8013291056286 split=train T=5000 traj_n=77 energy=-2567.8013291056286 pbc="F F F"
C       -3.23778210       0.56364460       0.06532460       2.64482640       2.35713079      -1.94645585       2.64482640       2.35713079      -1.94645585
N       -0.57195710      -0.05254360       0.31538270      -1.65622950      -2.44904660      -3.79346852      -1.65622950      -2.44904660      -3.79346852
H       -2.47571110      -0.26937920       0.38745400      -0.53686366       0.19652419       0.77368089      -0.53686366       0.19652419       0.77368089
H       -2.89542590       1.64180320      -0.53360830      -1.51728049      -2.54322108       1.77153212      -1.51728049      -2.54322108       1.77153212
H       -0.45443470      -1.11187740      -0.14520340       0.24843718       2.64191478       1.96960401       0.24843718       2.64191478       1.96960401
H       -0.52438520       0.73454080      -0.39911880       0.81384147      -0.20291790       1.22617523       0.81384147      -0.20291790       1.22617523
6
Properties=species:S:1:pos:R:3:REF_forces:R:3:forces:R:3 REF_energy=-2566.3006091700277 split=train T=5000 traj_n=54 energy=-2566.3006091700277 pbc="F F F"
C       -2.86788100       0.54601460       0.30548680       3.02891649       6.12566218       0.39570664       3.02891649       6.12566218       0.39570664
N       -1.39734640       0.35030430       0.03048160       0.63988268      -0.18811298       1.67580948       0.63988268      -0.18811298       1.67580948
H       -3.51034190       0.24099180       1.19040080       0.30256497      -1.66731044      -1.16434061       0.30256497      -1.66731044      -1.16434061
H       -2.99239070       1.73550520       0.17069040      -0.64502859      -2.22343387       0.08268062      -0.64502859      -2.22343387       0.08268062
H        4.66812550      -5.71745770      -1.09916580      -0.00015092       0.00015833       0.00003075      -0.00015092       0.00015833       0.00003075
H       -0.39104700       1.45130350       0.13306110      -3.32728665      -2.04564002      -0.98994118      -3.32728665      -2.04564002      -0.98994118
6
Properties=species:S:1:pos:R:3:REF_forces:R:3:forces:R:3 REF_energy=-2569.7325037279466 split=train T=0 traj_n=73_old energy=-2569.7325037279466 pbc="F F F"
C       -2.73959980       0.37369800       0.23700200       4.57776864      -2.23579121      -2.68416027       4.57776864      -2.23579121      -2.68416027
N       -0.96137230       0.11631180       0.04362290       1.42242755       0.79790269       1.69287266       1.42242755       0.79790269       1.69287266
H       -3.30576560       0.93122020       0.85026090      -1.59110124       3.10262632       3.24386325      -1.59110124       3.10262632       3.24386325
H       -3.11719630      -0.20134310      -0.53598610      -1.30958260      -1.84137702      -1.75822383      -1.30958260      -1.84137702      -1.75822383
H       -0.39786380      -0.32061940      -0.73062340      -1.77121783       0.50457754      -0.13252557      -1.77121783       0.50457754      -0.13252557
H       -0.33330350       0.35848640       0.85354860      -1.32825971      -0.32805890      -0.36154094      -1.32825971      -0.32805890      -0.36154094
6
Properties=species:S:1:pos:R:3:REF_forces:R:3:forces:R:3 REF_energy=-2568.1446720001977 split=train T=0 traj_n=47_old energy=-2568.1446720001977 pbc="F F F"
C       -2.68438160       0.25676420      -0.06503860      -2.23897856      -0.68593762       0.12162877      -2.23897856      -0.68593762       0.12162877
N       -0.97787640       0.15543000       0.30253980       0.78820531      -2.08177328       1.77997141       0.78820531      -2.08177328       1.77997141
H       -2.89228100       1.40082160      -0.10474970       0.14830176      -1.51115695       0.81116244       0.14830176      -1.51115695       0.81116244
H       -3.83013310      -0.60454540      -0.42685460       4.02236599       1.94352392       0.53075369       4.02236599       1.94352392       0.53075369
H       -0.66560990       0.95076150      -0.12564530       0.96683344       2.79125583      -3.23565346       0.96683344       2.79125583      -3.23565346
H        0.00504030      -0.19021150       0.76507380      -3.69137458      -0.45622440      -0.00306979      -3.69137458      -0.45622440      -0.00306979
6
Properties=species:S:1:pos:R:3:REF_forces:R:3:forces:R:3 REF_energy=-2566.438324019341 split=train T=5000 traj_n=60 energy=-2566.438324019341 pbc="F F F"
C       -2.16796100       0.99871860       0.04117090      -2.49055974       5.18006590       0.78012115      -2.49055974       5.18006590       0.78012115
N       -1.16814900       0.08251180       0.11162950       1.61506058      -1.18476993      -0.54438084       1.61506058      -1.18476993      -0.54438084
H       -4.86479710      -2.67866290       0.37999620       1.14908055      -1.49857700       3.76884928       1.14908055      -1.49857700       3.76884928
H       -4.58149660      -3.04990440       1.31132400      -1.12780569       1.51916167      -3.77798467      -1.12780569       1.51916167      -3.77798467
H       -0.29286490       0.06047900       0.71592680      -0.43892524      -0.44990776      -0.01160601      -0.43892524      -0.44990776      -0.01160601
H       -1.86880960      -0.54162220      -0.30714030       1.29333204      -3.56654186      -0.21487621       1.29333204      -3.56654186      -0.21487621
6
Properties=species:S:1:pos:R:3:REF_forces:R:3:forces:R:3 REF_energy=-2563.9265189813595 split=train T=5000 traj_n=76 energy=-2563.9265189813595 pbc="F F F"
C       -2.64939450       0.40638370       0.05124210       0.86922700      -2.80903758      -2.02166052       0.86922700      -2.80903758      -2.02166052
N       -1.26088770      -0.01882610       0.13499730      -4.02487389      -2.23890328      -2.84932780      -4.02487389      -2.23890328      -2.84932780
H       -3.85016410      -0.04179370       1.63984600       0.82871083       0.44850749      -0.78486026       0.82871083       0.44850749      -0.78486026
H       -3.46205920      -0.05019290      -0.92655540       2.09246259       1.36014921       2.89400051       2.09246259       1.36014921       2.89400051
H       -1.17206120      -1.01492020      -0.83712230       0.24661797       3.24061317       2.76208841       0.24661797       3.24061317       2.76208841
H        4.37954730       3.35531430       1.51496070      -0.00067754      -0.00037559      -0.00018425      -0.00067754      -0.00037559      -0.00018425
6
Properties=species:S:1:pos:R:3:REF_forces:R:3:forces:R:3 REF_energy=-2565.4310283066043 split=train T=5000 traj_n=32 energy=-2565.4310283066043 pbc="F F F"
C       -2.88089350       0.24620790       0.24383390       1.62033751      -0.50488685       0.49013540       1.62033751      -0.50488685       0.49013540
N       -0.71376740       0.01675180       0.13564300      -3.65246191       4.34655852      -2.92786266      -3.65246191       4.34655852      -2.92786266
H       -3.62324770       1.69054300       0.31235670      -0.12251220      -1.29329378      -1.24143622      -0.12251220      -1.29329378      -1.24143622
H       -3.76922620       0.93951100      -0.50119210       0.61562859       1.24184971       1.16395803       0.61562859       1.24184971       1.16395803
H       -0.95224360       0.09553580      -0.98031970       1.10686822      -0.95832211       1.91519576       1.10686822      -0.95832211       1.91519576
H       -0.73054950       1.21438390       0.14152350       0.43257333      -2.83145714       0.60105388       0.43257333      -2.83145714       0.60105388
6
Properties=species:S:1:pos:R:3:REF_forces:R:3:forces:R:3 REF_energy=-2563.4435953674047 split=train T=5000 traj_n=49 energy=-2563.4435953674047 pbc="F F F"
C       -1.50851470       0.37329010       1.31831820      -2.08807731      -1.65784672      -0.60479452      -2.08807731      -1.65784672      -0.60479452
N       -1.39452840      -0.02503170      -0.03113680      -0.67200532       0.92415796      -0.90389463      -0.67200532       0.92415796      -0.90389463
H       -2.46905420       0.10284370       2.35994780       2.45229935       0.65163463      -3.27640843       2.45229935       0.65163463      -3.27640843
H       -6.22888930      -3.02167920     -15.34961020       0.00000555       0.00000386       0.00001820       0.00000555       0.00000386       0.00001820
H       -4.35889520       4.23442950       0.91162780       0.00348755      -0.00539402       0.00027526       0.00348755      -0.00539402       0.00027526
H       -1.59299470      -0.05510370      -1.37881050       0.30424982       0.08779094       4.78470461       0.30424982       0.08779094       4.78470461
6
Properties=species:S:1:pos:R:3:REF_forces:R:3:forces:R:3 REF_energy=-2569.836896496646 split=train T=0 traj_n=47_old energy=-2569.836896496646 pbc="F F F"
C       -2.57125390       0.24590480       0.09865020       1.67509173      -2.32326360       3.22387040       1.67509173      -2.32326360       3.22387040
N       -1.09335690       0.26317940       0.13969460      -1.04246830      -6.15663220      -1.06293850      -1.04246830      -6.15663220      -1.06293850
H       -2.93101900       0.95245010      -0.53724760      -1.47847642       1.61665091      -3.66284156      -1.47847642       1.61665091      -3.66284156
H       -3.32572610      -0.48607990       0.60978810       1.41491685       1.50946470       0.58178078       1.41491685       1.50946470       0.58178078
H       -0.30265840       0.81818620       0.39260210       0.55860481       0.97016965       2.06170844       0.55860481       0.97016965       2.06170844
H       -0.66782980      -1.08670650       0.07428360      -1.12938214       4.38441122      -1.14155292      -1.12938214       4.38441122      -1.14155292
6
Properties=species:S:1:pos:R:3:REF_forces:R:3:forces:R:3 REF_energy=-2569.4109055176377 split=train T=5000 traj_n=37 energy=-2569.4109055176377 pbc="F F F"
C       -2.59929460       0.27407260       0.15725020       3.20078168       2.14023317       6.48080097       3.20078168       2.14023317       6.48080097
N       -1.09492010       0.16527800       0.07805570       3.81056158       0.20870428       0.05264077       3.81056158       0.20870428       0.05264077
H       -2.77259830       0.96808920       1.17533760      -0.35779083      -2.18670263      -1.36693687      -0.35779083      -2.18670263      -1.36693687
H       -3.29555420       0.20663050      -0.55246730      -2.84702033       0.23763125      -4.10725826      -2.84702033       0.23763125      -4.10725826
H       -0.57804510      -0.54642670      -0.55545330      -1.23365200       0.30565719       1.72258448      -1.23365200       0.30565719       1.72258448
H       -0.36404660       0.64493000       0.85165630      -2.56106042      -0.69193395      -2.76993033      -2.56106042      -0.69193395      -2.76993033
6
Properties=species:S:1:pos:R:3:REF_forces:R:3:forces:R:3 REF_energy=-2564.6996772304224 split=train T=5000 traj_n=43 energy=-2564.6996772304224 pbc="F F F"
C       -3.95912110       0.71383500       1.07142150       2.52322386       0.69281547      -1.18964978       2.52322386       0.69281547      -1.18964978
N       -0.28539660      -0.15954880      -0.45570900       1.89906327      -0.06479211      -5.32611778       1.89906327      -0.06479211      -5.32611778
H       -2.46669710       1.11685550       0.36511580      -2.43709642      -0.74038701       1.15151188      -2.43709642      -0.74038701       1.15151188
H        0.51674000       0.50389310      -0.01129530      -2.06407360      -2.17768011      -0.17853978      -2.06407360      -2.17768011      -0.17853978
H       -0.56143830      -1.29612620      -0.74170300       1.01519738       3.59330062       1.76639002       1.01519738       3.59330062       1.76639002
H       -0.07158040       0.39242660      -1.94046570      -0.93637743      -1.30294715       3.77665119      -0.93637743      -1.30294715       3.77665119
6
Properties=species:S:1:pos:R:3:REF_forces:R:3:forces:R:3 REF_energy=-2566.7713462552565 split=train T=5000 traj_n=81 energy=-2566.7713462552565 pbc="F F F"
C       -4.63635320       0.35247190       0.30914550       4.36245303       0.10474649       0.67131781       4.36245303       0.10474649       0.67131781
N        0.61717410      -0.02258840       0.04230920      -2.77740905       0.73341834      -0.46336193      -2.77740905       0.73341834      -0.46336193
H       -3.70514810      -0.57958880       0.00057430      -2.90877145       2.30772750       0.68020205      -2.90877145       2.30772750       0.68020205
H       -4.27526880       1.43626680       0.86962120      -1.36052670      -2.43403213      -1.33250198      -1.36052670      -2.43403213      -1.33250198
H        1.17117000      -0.69606640       0.62571890       0.48770884       1.49059090      -1.43360954       0.48770884       1.49059090      -1.43360954
H        0.39689330       0.77471690      -0.68608170       2.19662009      -2.20243305       1.87792906       2.19662009      -2.20243305       1.87792906
6
Properties=species:S:1:pos:R:3:REF_forces:R:3:forces:R:3 REF_energy=-2568.0214428756312 split=train T=0 traj_n=63_old energy=-2568.0214428756312 pbc="F F F"
C       -3.83085130       0.58105920       0.38404130      -2.66434514       3.31946196      -2.65989209      -2.66434514       3.31946196      -2.65989209
N       -0.06409810      -0.06531110      -0.09345580       0.44551549       0.19272348       0.98693170       0.44551549       0.19272348       0.98693170
H       -3.75437960      -0.08422640      -0.57271510       0.87206015      -0.36411894       1.92152155       0.87206015      -0.36411894       1.92152155
H       -4.41852380       1.69791900       0.69101810       2.01471721      -2.98810937       0.65339228       2.01471721      -2.98810937       0.65339228
H        0.30924570       0.16162940       0.87204550      -0.48816593      -0.06690947      -0.44653632      -0.48816593      -0.06690947      -0.44653632
H        0.85284270      -0.27803390      -0.53440520      -0.17989563      -0.09304972      -0.45543635      -0.17989563      -0.09304972      -0.45543635
6
Properties=species:S:1:pos:R:3:REF_forces:R:3:forces:R:3 REF_energy=-2568.0357194983735 split=train T=5000 traj_n=94 energy=-2568.0357194983735 pbc="F F F"
C       -3.80859380       0.47662010       0.06368150       1.23899172      -3.43084823      -1.02694167       1.23899172      -3.43084823      -1.02694167
N       -0.02693580       0.05179510       0.22057880      -0.91053779       1.11316007       4.45019666      -0.91053779       1.11316007       4.45019666
H       -4.03981710       1.47627320       0.02170020      -0.87452152       3.38294281       0.47803928      -0.87452152       3.38294281       0.47803928
H       -3.64709620      -0.59078630      -0.15130490      -0.14101905       0.05089833       0.59545653      -0.14101905       0.05089833       0.59545653
H       -0.19215340       0.13260890      -0.74367580       0.78765962      -1.28946587      -2.23232100       0.78765962      -1.28946587      -2.23232100
H        0.40409290      -0.62343780       0.91785170      -0.10055328       0.17328846      -2.26443151      -0.10055328       0.17328846      -2.26443151
6
Properties=species:S:1:pos:R:3:REF_forces:R:3:forces:R:3 REF_energy=-2567.1820485196668 split=train T=0 traj_n=29_old energy=-2567.1820485196668 pbc="F F F"
C       -3.31622350       0.37966690       0.19110390       0.21105097       4.40162924       1.77121382       0.21105097       4.40162924       1.77121382
N       -0.46737830       0.05523480       0.10415200       3.76928035      -4.27843826       0.43734211       3.76928035      -4.27843826       0.43734211
H       -3.65883370       0.56011820       1.38716970       0.77925962      -1.31413998      -2.73309459       0.77925962      -1.31413998      -2.73309459
H       -3.09734260       1.52386090      -0.35495200      -0.56409031      -3.27981920       0.66691418      -0.56409031      -3.27981920       0.66691418
H        0.18429410      -0.92774920      -0.13431980      -2.61841484       2.36749105       1.48209510      -2.61841484       2.36749105       1.48209510
H       -0.66294360       0.55954290      -0.72346250      -1.57713048       2.10297614      -1.62544568      -1.57713048       2.10297614      -1.62544568
6
Properties=species:S:1:pos:R:3:REF_forces:R:3:forces:R:3 REF_energy=-2567.8470224345915 split=train T=5000 traj_n=19 energy=-2567.8470224345915 pbc="F F F"
C       -3.34745320       0.43011080       0.36485750      -1.69983767       1.37439595      -1.09662366      -1.69983767       1.37439595      -1.09662366
N       -0.36599750      -0.05462130      -0.03199670      -1.67653253       4.72116591      -1.45342709      -1.67653253       4.72116591      -1.45342709
H       -3.94729620       1.30456250       0.69916390       0.86881634       0.12335275       1.40507281       0.86881634       0.12335275       1.40507281
H       -3.21226810      -0.22882240      -0.45957720       1.33314018      -1.78958307      -0.37750570       1.33314018      -1.78958307      -0.37750570
H       -0.45747140       0.74959440      -0.89021350       0.66691824      -2.73604642       1.04371807       0.66691824      -2.73604642       1.04371807
H       -0.55400630       0.85601470       0.57600020       0.50747394      -1.69323462       0.47885324       0.50747394      -1.69323462       0.47885324
6
Properties=species:S:1:pos:R:3:REF_forces:R:3:forces:R:3 REF_energy=-2569.043252329468 split=train T=0 traj_n=64_old energy=-2569.043252329468 pbc="F F F"
C       -3.21237860       0.43946510       0.23301450       1.34547278      -1.97543507       0.38290424       1.34547278      -1.97543507       0.38290424
N       -0.50601380       0.13291680      -0.00776570      -1.18932196       1.48312796      -1.92308370      -1.18932196       1.48312796      -1.92308370
H       -3.37868390       0.42718750       1.37118180      -0.27996025       0.40586414      -1.21938829      -0.27996025       0.40586414      -1.21938829
H       -3.56887450      -0.28149050      -0.60009090      -0.02890656       1.22913704       0.86375760      -0.02890656       1.22913704       0.86375760
H       -0.67221430      -0.74156640      -0.60072340       0.39022510       0.32706409       1.93833230       0.39022510       0.32706409       1.93833230
H       -0.23937660       0.26493980       0.98702380      -0.23746083      -1.46975241      -0.04252420      -0.23746083      -1.46975241      -0.04252420
6
Properties=species:S:1:pos:R:3:REF_forces:R:3:forces:R:3 REF_energy=-2570.421656685263 split=train T=0 traj_n=78_old energy=-2570.421656685263 pbc="F F F"
C       -2.91471290       0.39067110       0.25887070       1.73148544       0.85339044      -0.25500414       1.73148544       0.85339044      -0.25500414
N       -0.77576560      -0.00630350       0.05153290      -3.16232585       4.71060541      -1.69649467      -3.16232585       4.71060541      -1.69649467
H       -3.32391270       1.43922520       0.48199810       1.54112310      -0.79077570       0.66669651       1.54112310      -0.79077570       0.66669651
H       -3.38262970      -0.27200720      -0.43652020       0.14560277      -1.36828269      -0.71547919       0.14560277      -1.36828269      -0.71547919
H       -0.52731920       0.64113930      -0.81294420      -0.56251998      -2.55946911       0.47013514      -0.56251998      -2.55946911       0.47013514
H       -0.23479860       0.48836350       0.76433590       0.30676148      -0.84577103       1.53009071       0.30676148      -0.84577103       1.53009071
6
Properties=species:S:1:pos:R:3:REF_forces:R:3:forces:R:3 REF_energy=-2566.7082171001384 split=train T=5000 traj_n=98 energy=-2566.7082171001384 pbc="F F F"
C       -5.06591880       0.61383660       0.23000390       4.84897119      -2.06629076       1.35009069       4.84897119      -2.06629076       1.35009069
N        1.03760050       0.01084950      -0.03922710       1.56772451      -3.47804191       2.03295281       1.56772451      -3.47804191       2.03295281
H       -3.73344610       0.07988760       0.54772220      -3.68571384       1.85811804      -1.45623530      -3.68571384       1.85811804      -1.45623530
H       -5.74548110       0.26322990       1.00088560      -1.15521134       0.20182107       0.11267536      -1.15521134       0.20182107       0.11267536
H        1.43035720      -0.32294400       0.97819220      -1.08127057       1.93325061      -1.83876061      -1.08127057       1.93325061      -1.83876061
H        1.01801970      -0.73259670      -0.81669670      -0.49452036       1.55125896      -0.20072064      -0.49452036       1.55125896      -0.20072064
6
Properties=species:S:1:pos:R:3:REF_forces:R:3:forces:R:3 REF_energy=-2568.0566660678924 split=train T=5000 traj_n=6 energy=-2568.0566660678924 pbc="F F F"
C       -2.69611380       0.22751390       0.20567740       2.53843774       1.12162584       0.62711088       2.53843774       1.12162584       0.62711088