6
Properties=species:S:1:pos:R:3:REF_forces:R:3:forces:R:3 REF_energy=-2565.894830013088 split=val T=5000 traj_n=35 energy=-2565.894830013088 pbc="F F F"
C       -1.85782570      -0.56321840       0.82000400      -4.22457915      -8.13637155       7.91247025      -4.22457915      -8.13637155       7.91247025
N       -1.32943710       0.30696870       0.06386690       1.04019879       4.65981748      -6.19980128       1.04019879       4.65981748      -6.19980128
H       -4.99093500       4.17876450      -2.97317670       0.18894627       0.25786053      -0.30988563       0.18894627       0.25786053      -0.30988563
H       -4.64768700       4.62244860      -3.51135670      -0.18803929      -0.26094442       0.31254903      -0.18803929      -0.26094442       0.31254903
H       -2.31821770       0.21547000      -0.60921390       3.05723668       2.17993214      -0.33599719       3.05723668       2.17993214      -0.33599719
H       -0.33944660       0.58598110       0.35536570       0.12638161       1.29930009      -1.37953142       0.12638161       1.29930009      -1.37953142
6
Properties=species:S:1:pos:R:3:REF_forces:R:3:forces:R:3 REF_energy=-2566.8788853330093 split=val T=5000 traj_n=12 energy=-2566.8788853330093 pbc="F F F"
C       -2.45131500       0.25956450       0.19825730     -16.33349785      -0.18377383      -2.19767857     -16.33349785      -0.18377383      -2.19767857
N       -1.22406660       0.15695610       0.07736870      18.30891662       0.94388691       3.18087713      18.30891662       0.94388691       3.18087713
H       -2.63674270       0.95686180       0.92876700      -1.85151915       2.54612236       2.04731494      -1.85151915       2.54612236       2.04731494
H       -3.16999680       0.25937870      -0.73525400       0.16803328      -0.37072436       1.43025173       0.16803328      -0.37072436       1.43025173
H       -0.66559610      -0.36449720      -0.50445160       1.44469752      -1.79610811      -3.26775718       1.44469752      -1.79610811      -3.26775718
H       -0.50659430       0.70990130       0.75148240      -1.68725182      -1.31883847      -1.19938413      -1.68725182      -1.31883847      -1.19938413
6
Properties=species:S:1:pos:R:3:REF_forces:R:3:forces:R:3 REF_energy=-2566.118108004446 split=val T=5000 traj_n=35 energy=-2566.118108004446 pbc="F F F"
C       -1.84681650      -0.57318800       0.82553040      -3.85832162      -8.31862025       8.01720034      -3.85832162      -8.31862025       8.01720034
N       -1.33621620       0.30376180       0.06316570       1.17907103       4.93586790      -5.69654857       1.17907103       4.93586790      -5.69654857
H       -5.02335880       4.24913270      -3.00678200       0.21590213       0.24712438      -0.33700444       0.21590213       0.24712438      -0.33700444
H       -4.65515750       4.65167920      -3.56232470      -0.21496584      -0.25002376       0.33959704      -0.21496584      -0.25002376       0.33959704
H       -2.29712600       0.24185820      -0.56917170       2.65114206       2.23553004      -0.90774871       2.65114206       2.23553004      -0.90774871
H       -0.35552810       0.62686210       0.34368750       0.02724187       1.14971777      -1.41558091       0.02724187       1.14971777      -1.41558091
6
Properties=species:S:1:pos:R:3:REF_forces:R:3:forces:R:3 REF_energy=-2568.1479378543663 split=val T=0 traj_n=85_old energy=-2568.1479378543663 pbc="F F F"
C       -2.61031090       0.39043110       0.15758520      -1.36827852       0.55747604      -1.12975212      -1.36827852       0.55747604      -1.12975212
N       -1.04515450       0.09845670       0.09811870      -0.10645407      -3.64720925      -2.66614949      -0.10645407      -3.64720925      -2.66614949
H       -2.96801160       0.76863830       1.06252900       0.56575103       1.53470666       2.63092918       0.56575103       1.53470666       2.63092918
H       -3.17514100      -0.33680060      -0.38343150       0.24595499      -1.57141569      -1.87293191       0.24595499      -1.57141569      -1.87293191
H       -0.81540970      -0.22542300      -0.90694150      -0.49520536       1.08397676       1.28086106      -0.49520536       1.08397676       1.28086106
H       -0.64019800       0.58766120       0.83849130       1.15905000       2.04258190       1.75549301       1.15905000       2.04258190       1.75549301
6
Properties=species:S:1:pos:R:3:REF_forces:R:3:forces:R:3 REF_energy=-2565.815769445427 split=val T=5000 traj_n=35 energy=-2565.815769445427 pbc="F F F"
C       -1.61464620      -0.76247080       0.93120570       0.57958028       1.41274005      -2.33720787       0.57958028       1.41274005      -2.33720787
N       -1.43017490       0.22949690       0.10820280      -0.63056135       2.53654299       2.41272416      -0.63056135       2.53654299       2.41272416
H       -5.46317150       5.64872920      -3.89873070       0.27625667      -0.26839121      -0.24192854       0.27625667      -0.26839121      -0.24192854
H       -4.99299330       5.19370070      -4.31902810      -0.27523147       0.26714977       0.24249732      -0.27523147       0.26714977       0.24249732
H       -2.34824580       1.08333120      -0.39237450      -1.61501847      -1.30699920      -0.42279157      -1.61501847      -1.30699920      -0.42279157
H       -0.94674660       1.19965340      -0.07154990       1.66602232      -2.64019764       0.34552616       1.66602232      -2.64019764       0.34552616
6
Properties=species:S:1:pos:R:3:REF_forces:R:3:forces:R:3 REF_energy=-2565.470977021414 split=val T=5000 traj_n=35 energy=-2565.470977021414 pbc="F F F"
C       -2.14658780      -0.31274440       0.69288080      -5.22893830      -2.11876765       5.56600080      -5.22893830      -2.11876765       5.56600080
N       -1.22768300       0.31406760       0.06744890       4.99923542      -0.82410198      -1.80479690       4.99923542      -0.82410198      -1.80479690
H       -4.14979660       2.84875210      -2.32933040      -0.40965858       0.82877480       0.25794425      -0.40965858       0.82877480       0.25794425
H       -4.51147090       3.51091510      -2.08252620       0.50351064      -0.83616169      -0.25671130       0.50351064      -0.83616169      -0.25671130
H       -1.41282860       0.08962450      -0.83690330      -1.87129515       1.59688864      -6.09223757      -1.87129515       1.59688864      -6.09223757
H       -0.24665580      -0.01579570      -0.02210560       2.00641959       1.35334062       2.33003809       2.00641959       1.35334062       2.33003809
6
Properties=species:S:1:pos:R:3:REF_forces:R:3:forces:R:3 REF_energy=-2566.159244452228 split=val T=0 traj_n=6_old energy=-2566.159244452228 pbc="F F F"
C       -3.02515500       0.34847150       0.22524040       2.54013328      -1.40462384       3.19841797       2.54013328      -1.40462384       3.19841797
N       -0.63810480       0.09760110      -0.07490660      -1.77340044       0.02580277       6.80344076      -1.77340044       0.02580277       6.80344076
H       -3.57323100       0.05798360       1.10248370       0.55430160      -0.65552635       1.48104711       0.55430160      -0.65552635       1.48104711
H       -3.50235050       0.70423630      -0.56766070      -1.25293528       1.98190607      -4.82338059      -1.25293528       1.98190607      -4.82338059
H       -0.84828850      -0.45386060       0.95809200      -0.69750542      -2.52587081      -3.34075594      -0.69750542      -2.52587081      -3.34075594
H       -0.43062140       0.77516770       0.77437160       0.62925338       2.57824377      -3.32029783       0.62925338       2.57824377      -3.32029783
6
Properties=species:S:1:pos:R:3:REF_forces:R:3:forces:R:3 REF_energy=-2564.952497960773 split=val T=0 traj_n=53_old energy=-2564.952497960773 pbc="F F F"
C       -3.49557030       0.36061660       0.27294840       0.36641061       1.97321250      -1.13572042       0.36641061       1.97321250      -1.13572042
N       -0.39087820       0.11595170      -0.01783280       2.51741172       2.06254986      -1.45657643       2.51741172       2.06254986      -1.45657643
H       -3.75993790      -0.36467020       1.20318810       0.79440147       1.53194997      -1.54366623       0.79440147       1.53194997      -1.54366623
H       -3.11117240       1.55701390      -0.49245270      -0.96141700      -3.58079359       2.55713033      -0.96141700      -3.58079359       2.55713033
H        0.00977590      -0.65262690       0.37311950      -1.45176796      -4.82041749       3.37032667      -1.45176796      -4.82041749       3.37032667
H        0.52518740       0.36868930      -0.42491950      -1.26436841       2.83362504      -1.79144449      -1.26436841       2.83362504      -1.79144449
6
Properties=species:S:1:pos:R:3:REF_forces:R:3:forces:R:3 REF_energy=-2565.8190755387873 split=val T=5000 traj_n=35 energy=-2565.8190755387873 pbc="F F F"
C       -1.48736060      -0.82955300       0.96024220       0.14962752       4.16271167      -3.77691170       0.14962752       4.16271167      -3.77691170
N       -1.49969250       0.23321720       0.13628170      -2.97218622      -1.06575186       3.15377076      -2.97218622      -1.06575186       3.15377076
H       -5.56703270       6.30760230      -4.48159540       0.63748687      -1.76807080      -0.22175653       0.63748687      -1.76807080      -0.22175653
H       -5.28766810       5.53018550      -4.58142200      -0.63702994       1.76699875       0.22192638      -0.63702994       1.76699875       0.22192638
H       -2.37008100       0.97495930      -0.20489870      -1.59099480      -2.88257566       0.63287555      -1.59099480      -2.88257566       0.63287555
H       -1.05610170       1.09534680      -0.15098090       4.41320625      -0.21341042      -0.00913266       4.41320625      -0.21341042      -0.00913266
6
Properties=species:S:1:pos:R:3:REF_forces:R:3:forces:R:3 REF_energy=-2566.572897353703 split=val T=0 traj_n=53_old energy=-2566.572897353703 pbc="F F F"
C       -3.42351250       0.42215700       0.28568790       2.02717168      -0.20225147      -2.52613815       2.02717168      -0.20225147      -2.52613815
N       -0.45742930       0.10283620       0.05184220       0.27542477       2.39711257      -0.09413488       0.27542477       2.39711257      -0.09413488
H       -3.20120220      -0.35379790       1.16443700      -0.25871697       1.19427792      -1.44755299      -0.25871697       1.19427792      -1.44755299
H       -2.90777670       0.72517700      -1.01773820      -1.37371723      -1.04782587       3.94847289      -1.37371723      -1.04782587       3.94847289
H       -0.22355840      -0.79405910      -0.16246630      -0.39986956      -4.43487761      -0.00989283      -0.39986956      -4.43487761      -0.00989283
H        0.13222500       0.77326170      -0.39960210      -0.27018373       2.09348008       0.12941453      -0.27018373       2.09348008       0.12941453
6
Properties=species:S:1:pos:R:3:REF_forces:R:3:forces:R:3 REF_energy=-2566.6611381971416 split=val T=5000 traj_n=35 energy=-2566.6611381971416 pbc="F F F"
C       -2.72887840       0.37684310       0.14777850      -0.63760556       7.02864699       1.74341531      -0.63760556       7.02864699       1.74341531
N       -1.02818750       0.13205510       0.06006930       6.43259880      -0.85024933      -1.24282220       6.43259880      -0.85024933      -1.24282220
H       -2.76046980       1.26281330       0.92793770      -0.15775128      -1.60782246      -1.39126460      -0.15775128      -1.60782246      -1.39126460
H       -2.74601110      -0.60326410       0.02245110      -1.16600293      -5.53151773      -0.74731052      -1.16600293      -5.53151773      -0.74731052
H       -0.13831120       0.04032520      -0.60515010      -3.24486911       0.97510941      -0.61908662      -3.24486911       0.97510941      -0.61908662
H       -0.70312270      -0.17468290       0.95567290      -1.22641692      -0.01402665       2.25701284      -1.22641692      -0.01402665       2.25701284
6
Properties=species:S:1:pos:R:3:REF_forces:R:3:forces:R:3 REF_energy=-2565.735685613025 split=val T=5000 traj_n=35 energy=-2565.735685613025 pbc="F F F"
C       -2.12106280      -0.33337060       0.70133430      -5.82324627      -2.98189461       6.59883338      -5.82324627      -2.98189461       6.59883338
N       -1.23500130       0.31792640       0.06998810       5.10217808      -0.76805254      -4.88218270       5.10217808      -0.76805254      -4.88218270
H       -4.21698520       2.93070370      -2.37507630      -0.20453076       0.44394362       0.09275795      -0.20453076       0.44394362       0.09275795
H       -4.52408910       3.62840620      -2.20599040       0.20854163      -0.44983659      -0.09185308       0.20854163      -0.44983659      -0.09185308
H       -1.54569000       0.06854630      -0.85343840      -0.46480052       2.18523988      -3.25291122      -0.46480052       2.18523988      -3.25291122
H       -0.23225520       0.00500560       0.02741830       1.18208981       1.57039717       1.53546354       1.18208981       1.57039717       1.53546354
6
Properties=species:S:1:pos:R:3:REF_forces:R:3:forces:R:3 REF_energy=-2565.3737092827655 split=val T=5000 traj_n=35 energy=-2565.3737092827655 pbc="F F F"
C       -2.22720000      -0.24307490       0.66601320      -1.48540272       0.46043499       1.72549831      -1.48540272       0.46043499       1.72549831
N       -1.20288020       0.29788800       0.06861700       2.42830427      -3.37483232      -4.60503838       2.42830427      -3.37483232      -4.60503838
H       -3.95335790       2.61474420      -2.16444090      -1.07774384       1.04647228       0.99578195      -1.07774384       1.04647228       0.99578195
H       -4.44833160       3.09644750      -1.69748240       1.08928203      -1.05770430      -0.99175447       1.08928203      -1.05770430      -0.99175447
H       -1.08122190       0.16385550      -1.00728830      -2.94216041       2.24096561      -1.10775530      -2.94216041       2.24096561      -1.10775530
H       -0.23555210      -0.06966790      -0.09707470       1.98730076       0.68504658       3.98352973       1.98730076       0.68504658       3.98352973
6
Properties=species:S:1:pos:R:3:REF_forces:R:3:forces:R:3 REF_energy=-2567.2829328202556 split=val T=0 traj_n=85_old energy=-2567.2829328202556 pbc="F F F"
C       -3.06349700       0.41155800       0.32295300       0.34988351       0.59744250      -4.62745691       0.34988351       0.59744250      -4.62745691
N       -0.67031380       0.04453080      -0.02790120      -1.36561496       0.42358650      -0.06526309      -1.36561496       0.42358650      -0.06526309
H       -3.07462840       1.09450730      -0.62370940       1.36673416       1.70261128       1.99035009       1.36673416       1.70261128       1.99035009
H       -3.61126700      -0.47263390       0.01520560      -0.27145205      -2.56996271       2.46566703      -0.27145205      -2.56996271       2.46566703
H       -0.56891230       1.12148020       0.05334460       0.42010209      -1.59584637       0.68592559       0.42010209      -1.59584637       0.68592559
H       -0.26903000      -0.54632150       0.78053640      -0.49955664       1.44212426      -0.44914095      -0.49955664       1.44212426      -0.44914095
6
Properties=species:S:1:pos:R:3:REF_forces:R:3:forces:R:3 REF_energy=-2563.9119633834334 split=val T=0 traj_n=6_old energy=-2563.9119633834334 pbc="F F F"
C       -2.32763450       0.35631180       0.19251500     -26.72012636       7.50936202       3.27289167     -26.72012636       7.50936202       3.27289167
N       -1.30191670       0.11249320       0.07520520      28.84303174      -4.02216091       0.32311334      28.84303174      -4.02216091       0.32311334
H       -2.88116200      -0.60167500      -0.48494140      -0.89770351      -0.12371805      -0.29491928      -0.89770351      -0.12371805      -0.29491928
H       -2.99911020       0.91970980       0.85459790      -0.82254384       0.50142347       0.32768008      -0.82254384       0.50142347       0.32768008
H       -0.39268330       0.93313320       0.64378840      -1.25502661      -0.23841795      -1.15859080      -1.25502661      -0.23841795      -1.15859080
H       -1.35239710      -0.87340720      -0.35104220       0.84447237      -3.63657692      -2.44271968       0.84447237      -3.63657692      -2.44271968
6
Properties=species:S:1:pos:R:3:REF_forces:R:3:forces:R:3 REF_energy=-2565.269856482633 split=val T=5000 traj_n=35 energy=-2565.269856482633 pbc="F F F"
C       -2.17827030      -0.28652770       0.68268410      -3.99817108      -1.03798337       4.13192214      -3.99817108      -1.03798337       4.13192214
N       -1.21800560       0.30859140       0.06643030       3.75278251      -1.70457833      -1.22844757       3.75278251      -1.70457833      -1.22844757
H       -4.06886010       2.75157680      -2.27019970      -0.85328981       1.17361026       0.68208086      -0.85328981       1.17361026       0.68208086
H       -4.49261430       3.35873410      -1.93014550       0.86114098      -1.18237983      -0.67978718       0.86114098      -1.18237983      -0.67978718
H       -1.26619030       0.11558900      -0.86505330      -2.50564656       1.68081269      -6.16276685      -2.50564656       1.68081269      -6.16276685
H       -0.25527550      -0.03746210      -0.06955470       2.74399190       0.97347748       3.25607547       2.74399190       0.97347748       3.25607547
6
Properties=species:S:1:pos:R:3:REF_forces:R:3:forces:R:3 REF_energy=-2567.4035313106365 split=val T=0 traj_n=85_old energy=-2567.4035313106365 pbc="F F F"
C       -2.97300400       0.40002850       0.23629930      -0.51026667       4.84982135       1.77468882      -0.51026667       4.84982135       1.77468882
N       -0.77583020      -0.00789620       0.03486690       4.99991588       1.99989947       0.33744400       4.99991588       1.99989947       0.33744400
H       -3.36603250       1.49635260       0.32837440       1.22895460      -1.50124750      -0.17789017       1.22895460      -1.50124750      -0.17789017
H       -3.30541280      -0.50592680      -0.16324740       0.22796606      -2.66875432      -1.16224058       0.22796606      -2.66875432      -1.16224058
H       -0.41378160       0.84788140      -0.61155790      -2.53682962      -1.38774008       0.00992436      -2.53682962      -1.38774008       0.00992436
H       -0.00601040       0.24700070       0.89996340      -3.40964706      -1.29179031      -0.78206984      -3.40964706      -1.29179031      -0.78206984
6
Properties=species:S:1:pos:R:3:REF_forces:R:3:forces:R:3 REF_energy=-2568.1454736076835 split=val T=5000 traj_n=28 energy=-2568.1454736076835 pbc="F F F"
C       -2.65158360       0.34747150       0.13510450       4.34708971      -0.93337942      -1.89670145       4.34708971      -0.93337942      -1.89670145
N       -1.07335580       0.11050910       0.15740500      -2.20097415      -1.40556117      -1.02291841      -2.20097415      -1.40556117      -1.02291841
H       -2.52473740       0.87342240       1.31303480      -0.64903267      -1.03163691      -1.47457328      -0.64903267      -1.03163691      -1.47457328
H       -3.15473740      -0.16184740      -0.80699450      -0.40394106       1.24536718       2.20884728      -0.40394106       1.24536718       2.20884728
H       -0.66038430      -0.27595780      -0.89181610      -1.76593750       0.57302160       1.65930644      -1.76593750       0.57302160       1.65930644
H       -0.34805860       0.72462840       0.46635240       0.67277414       1.55199301       0.52609691       0.67277414       1.55199301       0.52609691
6
Properties=species:S:1:pos:R:3:REF_forces:R:3:forces:R:3 REF_energy=-2564.964185711215 split=val T=5000 traj_n=8 energy=-2564.964185711215 pbc="F F F"
C       -3.06962260       0.46201490       0.30602690       4.13351823       6.50902274       9.54908974       4.13351823       6.50902274       9.54908974
N       -0.56504970       0.10559900      -0.12534960      -4.58624382      -1.89537888       4.46876116      -4.58624382      -1.89537888       4.46876116
H       -3.28487810       0.74911550       1.40621100       0.42211963      -0.56535112      -1.88495275       0.42211963      -0.56535112      -1.88495275
H       -3.38090250      -0.03750770      -0.40006020      -3.85700552      -5.92699194      -8.24398122      -3.85700552      -5.92699194      -8.24398122
H       -0.92464170      -0.88664750       0.08778120       1.81523496      -1.59571575      -3.34626998       1.81523496      -1.59571575      -3.34626998
H       -1.18098690       0.03918560       0.88070770       2.07377884       3.47512247      -0.54340280       2.07377884       3.47512247      -0.54340280
6
Properties=species:S:1:pos:R:3:REF_forces:R:3:forces:R:3 REF_energy=-2563.9600773368593 split=val T=0 traj_n=6_old energy=-2563.9600773368593 pbc="F F F"
C       -2.32587260       0.36845990       0.19982670     -22.49911024       4.42670572      -1.22861053     -22.49911024       4.42670572      -1.22861053
N       -1.29313800       0.09083320       0.06413850      25.78359018      -6.76418186      -0.02864790      25.78359018      -6.76418186      -0.02864790
H       -2.90562700      -0.49717910      -0.53923040      -1.98739553       1.13918308      -0.40987013      -1.98739553       1.13918308      -0.40987013
H       -2.94952660       0.79280050       0.84280960      -3.84171188       2.42778100       3.95329473      -3.84171188       2.42778100       3.95329473
H       -0.49738620       1.10678310       0.65712240       0.24617543       0.54676020      -1.13204066       0.24617543       0.54676020      -1.13204066
H       -1.42305910      -0.88440220      -0.22803530       2.29558464      -1.77730317      -1.15312623       2.29558464      -1.77730317      -1.15312623
6
Properties=species:S:1:pos:R:3:REF_forces:R:3:forces:R:3 REF_energy=-2566.6962401654264 split=val T=0 traj_n=53_old energy=-2566.6962401654264 pbc="F F F"
C       -3.42940050       0.42292110       0.28505650       2.03960806      -0.27460057      -2.44781298       2.03960806      -0.27460057      -2.44781298
N       -0.45504970       0.10668450       0.04917650       0.09765179       0.05347910      -0.06940508       0.09765179       0.05347910      -0.06940508
H       -3.20344090      -0.36319720       1.15266230      -0.26056379       1.23853412      -1.40162388      -0.26056379       1.23853412      -1.40162388
H       -2.90911570       0.72690260      -0.98320730      -1.36840199      -1.01069651       3.83272212      -1.36840199      -1.01069651       3.83272212
H       -0.19895110      -0.81638680      -0.14519250      -0.83614621      -2.92319446       0.45307279      -0.83614621      -2.92319446       0.45307279
H        0.14622780       0.74032020      -0.39740130       0.32791986       2.91651088      -0.36681921       0.32791986       2.91651088      -0.36681921
6
Properties=species:S:1:pos:R:3:REF_forces:R:3:forces:R:3 REF_energy=-2566.981300086576 split=val T=0 traj_n=2_old energy=-2566.981300086576 pbc="F F F"
C       -3.58797870       0.57267500      -0.04399910       0.10903561       0.86081970       1.07407740       0.10903561       0.86081970       1.07407740
N       -0.43528300       0.19390700      -0.04207050       4.87481685      -1.09214778      -1.10830660       4.87481685      -1.09214778      -1.10830660
H       -3.37820670       1.08869980       0.97113400       0.00029228      -0.73565510      -1.20397000       0.00029228      -0.73565510      -1.20397000
H       -3.43988210      -0.29990860      -0.70058460       0.29416415      -0.04417629       0.09838270       0.29416415      -0.04417629       0.09838270
H       -0.00743150      -0.09554590      -0.99294280      -2.56187361       0.47099538       0.63769606      -2.56187361       0.47099538       0.63769606
H        0.44925470       0.33199690       0.57109780      -2.71356212       0.54017699       0.50215196      -2.71356212       0.54017699       0.50215196
6
Properties=species:S:1:pos:R:3:REF_forces:R:3:forces:R:3 REF_energy=-2565.4911787261253 split=val T=5000 traj_n=35 energy=-2565.4911787261253 pbc="F F F"
C       -2.07037270      -0.37416120       0.71970190      -6.54032098      -4.58406830       7.86870462      -6.54032098      -4.58406830       7.86870462
N       -1.24852950       0.32344030       0.07537250       4.24010316      -0.23533540      -8.59937239       4.24010316      -0.23533540      -8.59937239
H       -4.35366630       3.09965160      -2.46573410      -0.40636397       0.81629657      -0.00276898      -0.40636397       0.81629657      -0.00276898
H       -4.54697800       3.85825340      -2.45375840       0.40860180      -0.82166205       0.00378281       0.40860180      -0.82166205       0.00378281
H       -1.82345550       0.03725770      -0.92136830       2.29870678       2.84381160       0.52081822       2.29870678       2.84381160       0.52081822
H       -0.20257220       0.06095320       0.13967440      -0.00098221       1.72274543       0.20645209      -0.00098221       1.72274543       0.20645209
6
Properties=species:S:1:pos:R:3:REF_forces:R:3:forces:R:3 REF_energy=-2565.313193341947 split=val T=5000 traj_n=35 energy=-2565.313193341947 pbc="F F F"
C       -2.05786590      -0.38431830       0.72462050      -6.31423389      -4.61301867       7.72645123      -6.31423389      -4.61301867       7.72645123
N       -1.25185190       0.32425640       0.07624240       3.82971126       0.03765329      -8.51001904       3.82971126       0.03765329      -8.51001904
H       -4.38819340       3.14299010      -2.48839010      -0.17943936       1.06538100      -0.03816592      -0.17943936       1.06538100      -0.03816592
H       -4.55233840       3.91459750      -2.51570990       0.18195488      -1.07081091       0.03982937       0.18195488      -1.07081091       0.03982937
H       -1.88929900       0.03342920      -0.93558970       2.66039392       2.84047842       0.82656556       2.66039392       2.84047842       0.82656556
H       -0.19760790       0.07829370       0.16770120      -0.17831959       1.74101431      -0.04457738      -0.17831959       1.74101431      -0.04457738
6
Properties=species:S:1:pos:R:3:REF_forces:R:3:forces:R:3 REF_energy=-2565.132741108426 split=val T=5000 traj_n=35 energy=-2565.132741108426 pbc="F F F"
C       -2.04544550      -0.39446970       0.72965670      -6.27375104      -4.83749831       7.74599028      -6.27375104      -4.83749831       7.74599028
N       -1.25520110       0.32484290       0.07686540       3.67686004       0.32386646      -8.45596530       3.67686004       0.32386646      -8.45596530
H       -4.42292310       3.18720050      -2.51109600      -0.18614732       1.01154832      -0.09516847      -0.18614732       1.01154832      -0.09516847
H       -4.55749520       3.97006380      -2.57761150       0.18850389      -1.01754639       0.09705900       0.18850389      -1.01754639       0.09705900
H       -1.95217070       0.03137160      -0.94695740       2.89357391       2.78062180       0.97985438       2.89357391       2.78062180       0.97985438
H       -0.19421410       0.09699270       0.19490520      -0.29906066       1.73938027      -0.27182800      -0.29906066       1.73938027      -0.27182800
6
Properties=species:S:1:pos:R:3:REF_forces:R:3:forces:R:3 REF_energy=-2566.4726302411727 split=val T=0 traj_n=6_old energy=-2566.4726302411727 pbc="F F F"
C       -2.63016660       0.39398070       0.17887300      -5.22863085       1.53044367       1.86597368      -5.22863085       1.53044367       1.86597368
N       -0.99816520       0.01914690       0.03139530      -0.08799889     -10.18589403      -5.70976996      -0.08799889     -10.18589403      -5.70976996
H       -3.48029730       0.38241990      -0.66208210       2.45864108      -0.66872547       0.56989087       2.45864108      -0.66872547       0.56989087
H       -3.05993080       1.01394130       1.36461100       1.88482398      -1.48196053      -2.25279382       1.88482398      -1.48196053      -2.25279382
H       -0.91658230       0.78976490       0.47069060       1.91854663       7.71190629       5.51196937       1.91854663       7.71190629       5.51196937
H       -0.84142780      -1.08537220       0.28878050      -0.94557139       3.09369538       0.01419162      -0.94557139       3.09369538       0.01419162
6
Properties=species:S:1:pos:R:3:REF_forces:R:3:forces:R:3 REF_energy=-2566.962362906102 split=val T=0 traj_n=6_old energy=-2566.962362906102 pbc="F F F"
C       -2.58648620       0.39418490       0.17908650      -4.78627900       2.45019069       3.63329953      -4.78627900       2.45019069       3.63329953
N       -1.02929070       0.01928290       0.03041990       0.77684875      -1.84493573      -1.34315401       0.77684875      -1.84493573      -1.34315401
H       -3.35506520       0.29502450      -0.62415200       1.10340536      -0.84832347      -0.87433697       1.10340536      -0.84832347      -0.87433697
H       -3.09183810       0.95700730       1.36179910       2.09259788      -1.58949697      -2.56623785       2.09259788      -1.58949697      -2.56623785
H       -0.93804830       0.98699830       0.49119250       0.88746728      -1.49964874       0.66960767       0.88746728      -1.49964874       0.66960767
H       -0.99400460      -1.12659730       0.24056950      -0.07414280       3.33169378       0.48031476      -0.07414280       3.33169378       0.48031476
6
Properties=species:S:1:pos:R:3:REF_forces:R:3:forces:R:3 REF_energy=-2565.7102321631924 split=val T=5000 traj_n=28 energy=-2565.7102321631924 pbc="F F F"
C       -3.01402480       0.50488060      -0.10731600       2.70538859      -0.16328553       1.11206247       2.70538859      -0.16328553       1.11206247
N       -0.15954260      -0.04908700       0.27666600       3.88832604       0.49195605       2.63218161       3.88832604       0.49195605       2.63218161